LAMMPS (23 Jun 2022 - Update 1)
OMP_NUM_THREADS environment is not set. Defaulting to 1 thread. (src/comm.cpp:98)
  using 1 OpenMP thread(s) per MPI task

atom_style full

read_data	bcc_disordered.data
Reading data file ...
  orthogonal box = (0 0 0) to (6.9282032 6.9282032 6.9282032)
  1 by 1 by 1 MPI processor grid
  reading atoms ...
  432 atoms
Finding 1-2 1-3 1-4 neighbors ...
  special bond factors lj:    0        0        0       
  special bond factors coul:  0        0        0       
     0 = max # of 1-2 neighbors
     0 = max # of 1-3 neighbors
     0 = max # of 1-4 neighbors
     1 = max # of special neighbors
  special bonds CPU = 0.000 seconds
  read_data CPU = 0.003 seconds

pair_style lj/cut 0.5

pair_coeff 1 1 1.0 1.0 0.5

timestep 2.0

fix 1 all nve

dump 1 all xtc 1000 bcc.xtc
WARNING: No automatic unit conversion to XTC file format conventions possible for units lj (src/EXTRA-DUMP/dump_xtc.cpp:92)

run 100
Generated 0 of 0 mixed pair_coeff terms from geometric mixing rule
Neighbor list info ...
  update every 1 steps, delay 10 steps, check yes
  max neighbors/atom: 2000, page size: 100000
  master list distance cutoff = 0.8
  ghost atom cutoff = 0.8
  binsize = 0.4, bins = 18 18 18
  1 neighbor lists, perpetual/occasional/extra = 1 0 0
  (1) pair lj/cut, perpetual
      attributes: half, newton on
      pair build: half/bin/newton
      stencil: half/bin/3d
      bin: standard
Per MPI rank memory allocation (min/avg/max) = 6.083 | 6.083 | 6.083 Mbytes
   Step          Temp          E_pair         E_mol          TotEng         Press     
         0   0              0              0              0              0            
       100   0              0              0              0              0            
Loop time of 0.000754587 on 1 procs for 100 steps with 432 atoms

Performance: 22899943942.846 tau/day, 132522.824 timesteps/s
99.5% CPU use with 1 MPI tasks x 1 OpenMP threads

MPI task timing breakdown:
Section |  min time  |  avg time  |  max time  |%varavg| %total
---------------------------------------------------------------
Pair    | 0.00013997 | 0.00013997 | 0.00013997 |   0.0 | 18.55
Bond    | 3.246e-06  | 3.246e-06  | 3.246e-06  |   0.0 |  0.43
Neigh   | 0          | 0          | 0          |   0.0 |  0.00
Comm    | 0.0001715  | 0.0001715  | 0.0001715  |   0.0 | 22.73
Output  | 6.809e-06  | 6.809e-06  | 6.809e-06  |   0.0 |  0.90
Modify  | 0.00032928 | 0.00032928 | 0.00032928 |   0.0 | 43.64
Other   |            | 0.0001038  |            |       | 13.75

Nlocal:            432 ave         432 max         432 min
Histogram: 1 0 0 0 0 0 0 0 0 0
Nghost:            423 ave         423 max         423 min
Histogram: 1 0 0 0 0 0 0 0 0 0
Neighs:              0 ave           0 max           0 min
Histogram: 1 0 0 0 0 0 0 0 0 0

Total # of neighbors = 0
Ave neighs/atom = 0
Ave special neighs/atom = 0
Neighbor list builds = 0
Dangerous builds = 0


Total wall time: 0:00:00
