compute-4-21:rank0.lmp: Failed to modify UD QP to INIT on mlx5_0: Operation not permitted
compute-4-21:rank0.lmp: Failed to modify UD QP to INIT on mlx5_0: Operation not permitted
compute-4-21:rank0.lmp: Failed to modify UD QP to INIT on mlx5_0: Operation not permitted
compute-4-21:rank0.lmp: Failed to modify UD QP to INIT on mlx5_0: Operation not permitted
LAMMPS (2 Aug 2023 - Update 3)
OMP_NUM_THREADS environment is not set. Defaulting to 1 thread. (src/comm.cpp:98)
  using 1 OpenMP thread(s) per MPI task
Reading data file ...
  orthogonal box = (0 0 0) to (50 50 50)
  1 by 1 by 1 MPI processor grid
  reading atoms ...
  10000 atoms
  scanning bonds ...
  1 = max bonds/atom
  reading bonds ...
  9900 bonds
Finding 1-2 1-3 1-4 neighbors ...
  special bond factors lj:    0        0        0       
  special bond factors coul:  0        0        0       
     2 = max # of 1-2 neighbors
     2 = max # of 1-3 neighbors
     4 = max # of 1-4 neighbors
     6 = max # of special neighbors
  special bonds CPU = 0.004 seconds
  read_data CPU = 0.098 seconds
Finding 1-2 1-3 1-4 neighbors ...
  special bond factors lj:    0        1        1       
  special bond factors coul:  0        1        1       
     2 = max # of 1-2 neighbors
     6 = max # of special neighbors
  special bonds CPU = 0.002 seconds
Finding 1-2 1-3 1-4 neighbors ...
  special bond factors lj:    0        1        1       
  special bond factors coul:  0        0        0       
     2 = max # of 1-2 neighbors
     2 = max # of 1-3 neighbors
     4 = max # of 1-4 neighbors
     6 = max # of special neighbors
  special bonds CPU = 0.004 seconds
Generated 0 of 0 mixed pair_coeff terms from geometric mixing rule
Neighbor list info ...
  update: every = 1 steps, delay = 0 steps, check = yes
  max neighbors/atom: 2000, page size: 100000
  master list distance cutoff = 3.5
  ghost atom cutoff = 3.5
  binsize = 1.75, bins = 29 29 29
  1 neighbor lists, perpetual/occasional/extra = 1 0 0
  (1) pair lj/smooth/linear, perpetual
      attributes: half, newton on
      pair build: half/bin/newton
      stencil: half/bin/3d
      bin: standard
Setting up sd style minimization ...
  Unit style    : lj
  Current step  : 0
Per MPI rank memory allocation (min/avg/max) = 8.829 | 8.829 | 8.829 Mbytes
   Step          Temp          E_pair         E_mol          TotEng         Press     
         0   0              6.6459498e+15  20.629422      6.6459498e+15  2.1267039e+15
WARNING: FENE bond too long: 25 2462 2463 1.4400133870138345 (src/MOLECULE/bond_fene.cpp:89)
WARNING: FENE bond too long: 26 9643 9644 1.424124905546898 (src/MOLECULE/bond_fene.cpp:89)
WARNING: FENE bond too long: 26 2462 2463 1.4706511011274497 (src/MOLECULE/bond_fene.cpp:89)
WARNING: FENE bond too long: 27 9643 9644 1.4728604156864085 (src/MOLECULE/bond_fene.cpp:89)
WARNING: FENE bond too long: 27 3692 3693 1.4361965900119864 (src/MOLECULE/bond_fene.cpp:89)
WARNING: FENE bond too long: 27 2462 2463 1.520190606287287 (src/MOLECULE/bond_fene.cpp:89)
WARNING: FENE bond too long: 28 9643 9644 1.4906423842260539 (src/MOLECULE/bond_fene.cpp:89)
WARNING: FENE bond too long: 28 3692 3693 1.4457955470775876 (src/MOLECULE/bond_fene.cpp:89)
WARNING: FENE bond too long: 28 2462 2463 1.5305485312718792 (src/MOLECULE/bond_fene.cpp:89)
WARNING: FENE bond too long: 29 9643 9644 1.5933567498115913 (src/MOLECULE/bond_fene.cpp:89)
WARNING: FENE bond too long: 29 9644 9645 1.4391168390494713 (src/MOLECULE/bond_fene.cpp:89)
WARNING: FENE bond too long: 29 916 917 1.4327177916124672 (src/MOLECULE/bond_fene.cpp:89)
WARNING: FENE bond too long: 29 9343 9344 1.4902761837831486 (src/MOLECULE/bond_fene.cpp:89)
WARNING: FENE bond too long: 29 9435 9436 1.4616820795071455 (src/MOLECULE/bond_fene.cpp:89)
WARNING: FENE bond too long: 29 3692 3693 1.5258062240412105 (src/MOLECULE/bond_fene.cpp:89)
WARNING: FENE bond too long: 29 1589 1590 1.4632293339277544 (src/MOLECULE/bond_fene.cpp:89)
WARNING: FENE bond too long: 29 2444 2445 1.4520252951405255 (src/MOLECULE/bond_fene.cpp:89)
WARNING: FENE bond too long: 29 2462 2463 1.6133123861565242 (src/MOLECULE/bond_fene.cpp:89)
WARNING: FENE bond too long: 29 7618 7619 1.4725756084783184 (src/MOLECULE/bond_fene.cpp:89)
WARNING: FENE bond too long: 29 1356 1357 1.4341032280095898 (src/MOLECULE/bond_fene.cpp:89)
WARNING: FENE bond too long: 29 1702 1703 1.4415642626551302 (src/MOLECULE/bond_fene.cpp:89)
WARNING: FENE bond too long: 30 9643 9644 1.6021367469703471 (src/MOLECULE/bond_fene.cpp:89)
WARNING: FENE bond too long: 30 9644 9645 1.4447849840857665 (src/MOLECULE/bond_fene.cpp:89)
WARNING: FENE bond too long: 30 3524 3525 1.4371464008200105 (src/MOLECULE/bond_fene.cpp:89)
WARNING: FENE bond too long: 30 915 916 1.4439579098719157 (src/MOLECULE/bond_fene.cpp:89)
WARNING: FENE bond too long: 30 916 917 1.5226705926314836 (src/MOLECULE/bond_fene.cpp:89)
WARNING: FENE bond too long: 30 9343 9344 1.5374091141699464 (src/MOLECULE/bond_fene.cpp:89)
WARNING: FENE bond too long: 30 6613 6614 1.4317342691984758 (src/MOLECULE/bond_fene.cpp:89)
WARNING: FENE bond too long: 30 9435 9436 1.5141458256401992 (src/MOLECULE/bond_fene.cpp:89)
WARNING: FENE bond too long: 30 3692 3693 1.573527658220352 (src/MOLECULE/bond_fene.cpp:89)
WARNING: FENE bond too long: 30 1589 1590 1.5665539901556522 (src/MOLECULE/bond_fene.cpp:89)
WARNING: FENE bond too long: 30 2444 2445 1.5031048615869922 (src/MOLECULE/bond_fene.cpp:89)
WARNING: FENE bond too long: 30 2462 2463 1.6573637718446648 (src/MOLECULE/bond_fene.cpp:89)
WARNING: FENE bond too long: 30 2464 2465 1.446305738977037 (src/MOLECULE/bond_fene.cpp:89)
WARNING: FENE bond too long: 30 7618 7619 1.5011590543401485 (src/MOLECULE/bond_fene.cpp:89)
WARNING: FENE bond too long: 30 1356 1357 1.4515295098324954 (src/MOLECULE/bond_fene.cpp:89)
WARNING: FENE bond too long: 30 1702 1703 1.5227967224238093 (src/MOLECULE/bond_fene.cpp:89)
WARNING: FENE bond too long: 30 7676 7677 1.4394899731897361 (src/MOLECULE/bond_fene.cpp:89)
WARNING: FENE bond too long: 30 4932 4933 1.4412851032522769 (src/MOLECULE/bond_fene.cpp:89)
WARNING: FENE bond too long: 30 6119 6120 1.4350028020713632 (src/MOLECULE/bond_fene.cpp:89)
WARNING: FENE bond too long: 31 9643 9644 1.613595295482375 (src/MOLECULE/bond_fene.cpp:89)
WARNING: FENE bond too long: 31 9644 9645 1.4548161944620217 (src/MOLECULE/bond_fene.cpp:89)
WARNING: FENE bond too long: 31 3524 3525 1.4501896006792456 (src/MOLECULE/bond_fene.cpp:89)
WARNING: FENE bond too long: 31 915 916 1.4335448459964135 (src/MOLECULE/bond_fene.cpp:89)
WARNING: FENE bond too long: 31 916 917 1.5219970650456918 (src/MOLECULE/bond_fene.cpp:89)
WARNING: FENE bond too long: 31 9343 9344 1.549996190788438 (src/MOLECULE/bond_fene.cpp:89)
WARNING: FENE bond too long: 31 6613 6614 1.4377045874349248 (src/MOLECULE/bond_fene.cpp:89)
WARNING: FENE bond too long: 31 9435 9436 1.525868756556556 (src/MOLECULE/bond_fene.cpp:89)
WARNING: FENE bond too long: 31 3692 3693 1.585137729261836 (src/MOLECULE/bond_fene.cpp:89)
WARNING: FENE bond too long: 31 1589 1590 1.583554360907956 (src/MOLECULE/bond_fene.cpp:89)
WARNING: FENE bond too long: 31 2444 2445 1.5165536342671802 (src/MOLECULE/bond_fene.cpp:89)
WARNING: FENE bond too long: 31 2462 2463 1.6760057818468679 (src/MOLECULE/bond_fene.cpp:89)
WARNING: FENE bond too long: 31 2464 2465 1.4578388249989582 (src/MOLECULE/bond_fene.cpp:89)
WARNING: FENE bond too long: 31 7618 7619 1.5063341452037606 (src/MOLECULE/bond_fene.cpp:89)
WARNING: FENE bond too long: 31 1356 1357 1.4616992267727444 (src/MOLECULE/bond_fene.cpp:89)
WARNING: FENE bond too long: 31 1702 1703 1.5256425762750485 (src/MOLECULE/bond_fene.cpp:89)
WARNING: FENE bond too long: 31 7676 7677 1.4460988310414296 (src/MOLECULE/bond_fene.cpp:89)
WARNING: FENE bond too long: 31 4932 4933 1.448300024813595 (src/MOLECULE/bond_fene.cpp:89)
WARNING: FENE bond too long: 31 6119 6120 1.4398241637801017 (src/MOLECULE/bond_fene.cpp:89)
WARNING: FENE bond too long: 32 8727 8728 1.42737020472881 (src/MOLECULE/bond_fene.cpp:89)
WARNING: FENE bond too long: 32 1174 1175 1.429347591669268 (src/MOLECULE/bond_fene.cpp:89)
WARNING: FENE bond too long: 32 9643 9644 1.6203650181785365 (src/MOLECULE/bond_fene.cpp:89)
WARNING: FENE bond too long: 32 9644 9645 1.4621437462225335 (src/MOLECULE/bond_fene.cpp:89)
WARNING: FENE bond too long: 32 8728 8729 1.4286920233581142 (src/MOLECULE/bond_fene.cpp:89)
WARNING: FENE bond too long: 32 3512 3513 1.4345649888698553 (src/MOLECULE/bond_fene.cpp:89)
WARNING: FENE bond too long: 32 3524 3525 1.4688107214256596 (src/MOLECULE/bond_fene.cpp:89)
WARNING: FENE bond too long: 32 915 916 1.4304526837419165 (src/MOLECULE/bond_fene.cpp:89)
WARNING: FENE bond too long: 32 916 917 1.528637142463263 (src/MOLECULE/bond_fene.cpp:89)
WARNING: FENE bond too long: 32 9343 9344 1.5663427643038998 (src/MOLECULE/bond_fene.cpp:89)
WARNING: FENE bond too long: 32 6613 6614 1.4461998570591468 (src/MOLECULE/bond_fene.cpp:89)
WARNING: FENE bond too long: 32 9435 9436 1.5424478408673168 (src/MOLECULE/bond_fene.cpp:89)
WARNING: FENE bond too long: 32 3692 3693 1.6020023336537628 (src/MOLECULE/bond_fene.cpp:89)
WARNING: FENE bond too long: 32 1589 1590 1.6081771299259566 (src/MOLECULE/bond_fene.cpp:89)
WARNING: FENE bond too long: 32 2444 2445 1.5356722722325404 (src/MOLECULE/bond_fene.cpp:89)
WARNING: FENE bond too long: 32 2462 2463 1.695924359775638 (src/MOLECULE/bond_fene.cpp:89)
WARNING: FENE bond too long: 32 2464 2465 1.4685342834465238 (src/MOLECULE/bond_fene.cpp:89)
WARNING: FENE bond too long: 32 2467 2468 1.4259296363754295 (src/MOLECULE/bond_fene.cpp:89)
WARNING: FENE bond too long: 32 7618 7619 1.515394097035606 (src/MOLECULE/bond_fene.cpp:89)
WARNING: FENE bond too long: 32 1356 1357 1.4736334833096798 (src/MOLECULE/bond_fene.cpp:89)
WARNING: FENE bond too long: 32 1702 1703 1.5380228669601537 (src/MOLECULE/bond_fene.cpp:89)
WARNING: FENE bond too long: 32 7676 7677 1.4538578359155319 (src/MOLECULE/bond_fene.cpp:89)
WARNING: FENE bond too long: 32 4932 4933 1.458513345312745 (src/MOLECULE/bond_fene.cpp:89)
WARNING: FENE bond too long: 32 6119 6120 1.4466302831755606 (src/MOLECULE/bond_fene.cpp:89)
WARNING: FENE bond too long: 33 677 678 1.4256772276397174 (src/MOLECULE/bond_fene.cpp:89)
WARNING: FENE bond too long: 33 8727 8728 1.4471988938262885 (src/MOLECULE/bond_fene.cpp:89)
WARNING: FENE bond too long: 33 1174 1175 1.4476068767732506 (src/MOLECULE/bond_fene.cpp:89)
WARNING: FENE bond too long: 33 9643 9644 1.6255461240073685 (src/MOLECULE/bond_fene.cpp:89)
WARNING: FENE bond too long: 33 9644 9645 1.4685781002190184 (src/MOLECULE/bond_fene.cpp:89)
WARNING: FENE bond too long: 33 8728 8729 1.4329141251992308 (src/MOLECULE/bond_fene.cpp:89)
WARNING: FENE bond too long: 33 3512 3513 1.4521829350371334 (src/MOLECULE/bond_fene.cpp:89)
WARNING: FENE bond too long: 33 3524 3525 1.4891451154315634 (src/MOLECULE/bond_fene.cpp:89)
WARNING: FENE bond too long: 33 915 916 1.4336871902936337 (src/MOLECULE/bond_fene.cpp:89)
WARNING: FENE bond too long: 33 916 917 1.5407491919088638 (src/MOLECULE/bond_fene.cpp:89)
WARNING: FENE bond too long: 33 9343 9344 1.5832758332785255 (src/MOLECULE/bond_fene.cpp:89)
WARNING: FENE bond too long: 33 6613 6614 1.4553604220910656 (src/MOLECULE/bond_fene.cpp:89)
WARNING: FENE bond too long: 33 9435 9436 1.5601382416676997 (src/MOLECULE/bond_fene.cpp:89)
WARNING: FENE bond too long: 33 3692 3693 1.620787994310573 (src/MOLECULE/bond_fene.cpp:89)
WARNING: FENE bond too long: 33 1589 1590 1.6698714120094744 (src/MOLECULE/bond_fene.cpp:89)
WARNING: FENE bond too long: 33 2444 2445 1.5566197252156564 (src/MOLECULE/bond_fene.cpp:89)
WARNING: FENE bond too long: 33 2462 2463 1.7180455192985202 (src/MOLECULE/bond_fene.cpp:89)
WARNING: Too many warnings: 19853 vs 100. All future warnings will be suppressed (src/thermo.cpp:472)
       576   0             -2.8872571      20.111307      17.22405      -0.042626085  
Loop time of 6.93021 on 1 procs for 576 steps with 10000 atoms

99.5% CPU use with 1 MPI tasks x 1 OpenMP threads

Minimization stats:
  Stopping criterion = energy tolerance
  Energy initial, next-to-last, final = 
    6.64594981206297e+15   17.2241984108807   17.2240498575031
  Force two-norm initial, final = 2.9418654e+22 104.78119
  Force max component initial, final = 1.3283992e+22 8.951359
  Final line search alpha, max atom move = 0.003173416 0.028406386
  Iterations, force evaluations = 576 1011

MPI task timing breakdown:
Section |  min time  |  avg time  |  max time  |%varavg| %total
---------------------------------------------------------------
Pair    | 5.6376     | 5.6376     | 5.6376     |   0.0 | 81.35
Bond    | 0.47693    | 0.47693    | 0.47693    |   0.0 |  6.88
Neigh   | 0.35628    | 0.35628    | 0.35628    |   0.0 |  5.14
Comm    | 0.092695   | 0.092695   | 0.092695   |   0.0 |  1.34
Output  | 0          | 0          | 0          |   0.0 |  0.00
Modify  | 0          | 0          | 0          |   0.0 |  0.00
Other   |            | 0.3667     |            |       |  5.29

Nlocal:          10000 ave       10000 max       10000 min
Histogram: 1 0 0 0 0 0 0 0 0 0
Nghost:           5588 ave        5588 max        5588 min
Histogram: 1 0 0 0 0 0 0 0 0 0
Neighs:         235996 ave      235996 max      235996 min
Histogram: 1 0 0 0 0 0 0 0 0 0

Total # of neighbors = 235996
Ave neighs/atom = 23.5996
Ave special neighs/atom = 5.88
Neighbor list builds = 32
Dangerous builds = 0
Generated 0 of 0 mixed pair_coeff terms from geometric mixing rule
Setting up Verlet run ...
  Unit style    : lj
  Current step  : 0
  Time step     : 0.001
Per MPI rank memory allocation (min/avg/max) = 7.818 | 7.818 | 7.818 Mbytes
   Step          Temp          Press          PotEng         KinEng         TotEng         E_pair    
WARNING: Too many warnings: 19854 vs 100. All future warnings will be suppressed (src/thermo.cpp:472)
         0   1              0.037365915    17.22405       1.49985        18.7239       -2.8872571    
      1000   0.60022521    -0.0062339548   17.827288      0.90024777     18.727535     -2.5358289    
      2000   0.66239583     0.0027262255   17.743558      0.99349438     18.737052     -2.6395196    
      3000   0.70474982    -0.0060635348   17.689385      1.057019       18.746404     -2.7166114    
      4000   0.74084322    -0.0060435793   17.644187      1.1111537      18.755341     -2.775907     
      5000   0.76316104     0.0016694647   17.621027      1.1446271      18.765654     -2.8325897    
      6000   0.78552199    -0.014002652    17.599074      1.1781652      18.777239     -2.8732894    
      7000   0.80341738    -0.014528045    17.58427       1.2050056      18.789276     -2.8993556    
      8000   0.83959129     0.0036204715   17.542319      1.259261       18.80158      -2.9434143    
      9000   0.83651328     0.0063264754   17.559331      1.2546444      18.813976     -2.9504967    
     10000   0.85360552    -0.003238704    17.546195      1.2802802      18.826475     -2.9715129    
     11000   0.87476609    -0.0040662897   17.52695       1.3120179      18.838968     -2.9923083    
     12000   0.88198413    -0.008405284    17.528537      1.3228439      18.851381     -2.9913149    
     13000   0.89343829    -0.0094539553   17.523749      1.3400234      18.863772     -3.0128724    
     14000   0.91368558    -0.014960293    17.505673      1.3703913      18.876064     -3.0352056    
     15000   0.92703026     0.0008182024   17.497707      1.3904063      18.888113     -3.0500277    
     16000   0.93278432     0.00094449941  17.500852      1.3990366      18.899889     -3.055955     
     17000   0.94505683    -0.010361782    17.49396       1.4174435      18.911404     -3.0718244    
     18000   0.93968631    -0.0064849508   17.513165      1.4093885      18.922553     -3.0599664    
     19000   0.96176109    -0.0022768754   17.49087       1.4424974      18.933368     -3.0924692    
     20000   0.97778788    -0.016478512    17.477276      1.4665352      18.943811     -3.1006559    
     21000   0.97866164    -0.021722353    17.485895      1.4678457      18.95374      -3.1027469    
     22000   0.98335332     0.013463938    17.488209      1.4748825      18.963091     -3.1013695    
     23000   0.99992065    -0.0036311065   17.472197      1.499731       18.971928     -3.1224267    
     24000   1.0192051     -0.0084826644   17.451474      1.5286548      18.980129     -3.1381552    
     25000   1.0178598     -0.0099558402   17.460979      1.5266371      18.987616     -3.1368821    
     26000   1.0186064      0.0056365481   17.466538      1.5277568      18.994295     -3.1334965    
     27000   1.027906      -0.0022675129   17.458421      1.5417048      19.000126     -3.1486602    
     28000   1.0365617      0.0033104059   17.45029       1.554687       19.004977     -3.1652753    
     29000   1.0440452      0.0035714383   17.442785      1.5659113      19.008696     -3.1620839    
     30000   1.0476426      0.0033471615   17.439975      1.5713067      19.011281     -3.1765846    
     31000   1.0484829      0.015440684    17.439902      1.572567       19.012469     -3.184902     
     32000   1.0674068      0.025487722    17.411059      1.6009501      19.012009     -3.2027593    
     33000   1.0569642     -0.011943621    17.424421      1.5852878      19.009709     -3.1933358    
     34000   1.0615308     -0.015272492    17.413472      1.592137       19.005609     -3.2067843    
     35000   1.0662679      0.015194282    17.400311      1.5992419      18.999553     -3.2244056    
     36000   1.0642011     -0.0033083805   17.395557      1.5961421      18.991699     -3.2353688    
     37000   1.0706451      0.0028705367   17.376574      1.6058071      18.982381     -3.2524906    
     38000   1.0714274     -0.00081511185  17.364957      1.6069804      18.971937     -3.2664275    
     39000   1.0721431      0.010815035    17.352478      1.6080538      18.960531     -3.2741736    
     40000   1.0578376     -0.0045274388   17.362088      1.5865978      18.948685     -3.2668897    
     41000   1.068242       0.0054332391   17.334585      1.6022027      18.936788     -3.3031205    
     42000   1.0745899      0.00023010735  17.312738      1.6117236      18.924462     -3.3143859    
     43000   1.0592464     -0.008083509    17.323401      1.5887107      18.912112     -3.3169731    
     44000   1.0664204      0.026163995    17.300279      1.5994706      18.89975      -3.3486055    
     45000   1.06322       -0.0035782396   17.292709      1.5946705      18.887379     -3.3361421    
     46000   1.052591      -0.005322544    17.296254      1.5787286      18.874983     -3.3450662    
     47000   1.0720523      0.0066382847   17.25472       1.6079177      18.862638     -3.3716432    
     48000   1.0607733      0.0096264485   17.259143      1.5910008      18.850144     -3.3804991    
     49000   1.0520163     -0.00092482992  17.259885      1.5778666      18.837752     -3.3773974    
     50000   1.0536027     -0.016537516    17.245314      1.580246       18.82556      -3.3929887    
     51000   1.0564407     -0.010448882    17.22888       1.5845026      18.813383     -3.4026039    
     52000   1.0453994     -0.014955197    17.233375      1.5679423      18.801317     -3.401641     
     53000   1.0486547      9.6332945e-05  17.21656       1.5728247      18.789385     -3.4043194    
     54000   1.051569       0.0061303589   17.200561      1.5771957      18.777757     -3.4193814    
     55000   1.0482446     -0.004671739    17.193984      1.5722096      18.766194     -3.4371186    
     56000   1.0518224     -0.0010328239   17.177161      1.5775758      18.754737     -3.4425941    
     57000   1.0417176     -0.0045371397   17.181077      1.5624201      18.743497     -3.4435786    
     58000   1.0473913      0.0041680764   17.161574      1.5709298      18.732504     -3.462913     
     59000   1.0417624     -0.0033144116   17.159092      1.5624873      18.72158      -3.4613491    
     60000   1.0450513     -0.015559742    17.143276      1.5674202      18.710697     -3.4723862    
     61000   1.0302485     -0.0072123802   17.154675      1.5452182      18.699893     -3.4751986    
     62000   1.0337404     -0.017230565    17.138915      1.5504555      18.689371     -3.4757412    
     63000   1.0330736      0.028424759    17.12956       1.5494554      18.679015     -3.4994555    
     64000   1.0281024     -0.015982921    17.126734      1.5419994      18.668733     -3.5151038    
     65000   1.0185228     -0.016637367    17.130916      1.5276314      18.658547     -3.4976983    
     66000   1.0365568     -0.0081080401   17.094015      1.5546797      18.648694     -3.5196955    
     67000   1.025681      -0.01501872     17.100665      1.5383677      18.639032     -3.5208732    
     68000   1.0218252     -0.0064050489   17.097006      1.5325846      18.629591     -3.5222714    
     69000   1.024499       0.015787651    17.08368       1.5365948      18.620275     -3.5278943    
     70000   1.0100065     -0.00091762327  17.096285      1.5148583      18.611144     -3.5259381    
     71000   1.0215412      0.001003333    17.069974      1.5321585      18.602133     -3.5516102    
     72000   1.022845       0.012786763    17.05923       1.5341141      18.593344     -3.5430747    
     73000   1.0163237      0.0058238846   17.060414      1.5243331      18.584747     -3.5487167    
     74000   1.021344      -0.014968071    17.044427      1.5318627      18.57629      -3.5707961    
     75000   1.0169573     -0.0046455563   17.042635      1.5252834      18.567919     -3.5611146    
     76000   1.0124653      0.00023705852  17.04117       1.5185461      18.559716     -3.5542516    
     77000   1.010143      -0.0020589437   17.03678       1.515063       18.551843     -3.5747736    
     78000   1.0162319     -0.013340947    17.020017      1.5241954      18.544212     -3.588981     
     79000   1.0039608      0.031009279    17.031021      1.5057906      18.536812     -3.5854662    
     80000   0.99629591    -0.0057558224   17.035433      1.4942944      18.529727     -3.590173     
     81000   0.99913075    -0.011437631    17.024448      1.4985463      18.522994     -3.5870299    
     82000   1.0069126     -0.013153829    17.006292      1.5102179      18.51651      -3.6003529    
     83000   0.9938486     -0.0096269933   17.019587      1.4906238      18.510211     -3.5912673    
     84000   1.0032561      0.0015633198   16.999417      1.5047336      18.504151     -3.6098141    
     85000   1.004159      -0.0036809086   16.992155      1.5060879      18.498243     -3.6102789    
     86000   1.0026814     -0.019059869    16.988677      1.5038717      18.492549     -3.6165449    
     87000   0.99084424     0.0010918411   17.000956      1.4861177      18.487074     -3.5960401    
     88000   0.99886794     0.0033560998   16.983829      1.4981521      18.481981     -3.6140369    
     89000   0.99161602     0.0015146391   16.989863      1.4872753      18.477138     -3.6024033    
     90000   0.99549591    -0.0073389983   16.979434      1.4930945      18.472529     -3.6263518    
     91000   1.0136713      0.0032350435   16.947676      1.5203548      18.468031     -3.6424014    
     92000   0.98648245     0.0038654099   16.984114      1.4795757      18.463689     -3.619833     
     93000   0.99384166    -0.0074251422   16.969099      1.4906134      18.459713     -3.632337     
     94000   0.9840282      0.0048916696   16.980221      1.4758947      18.456115     -3.6214307    
     95000   0.98511538    -0.0041764853   16.975363      1.4775253      18.452888     -3.6260649    
     96000   1.0006751     -0.006803746    16.949035      1.5008625      18.449897     -3.6546595    
     97000   0.99621169     0.0030805327   16.952838      1.4941681      18.447006     -3.6634283    
     98000   0.97714549     0.00019794647  16.978647      1.4655717      18.444218     -3.6316274    
     99000   0.98945832     0.0079411932   16.957665      1.4840391      18.441704     -3.6394544    
    100000   0.99417982    -0.001902722    16.948269      1.4911206      18.43939      -3.6569023    
    101000   0.98773817    -0.0047091856   16.95583       1.4814591      18.437289     -3.6548904    
    102000   0.99419297    -0.015471659    16.944295      1.4911403      18.435435     -3.6560636    
    103000   0.99113951     0.0037325419   16.947279      1.4865606      18.43384      -3.6612103    
    104000   1.0015656      0.0030213135   16.930202      1.5021982      18.4324       -3.6608108    
    105000   0.98570107    -0.0075220972   16.952671      1.4784037      18.431075     -3.6607764    
    106000   0.99712741    -0.014941801    16.934374      1.4955415      18.429916     -3.6631023    
    107000   0.99208131     0.012278632    16.940982      1.4879732      18.428955     -3.6652875    
    108000   0.99703771    -8.59642e-05    16.932597      1.495407       18.428004     -3.6894269    
    109000   0.99581969    -0.015042217    16.933375      1.4935802      18.426956     -3.6708143    
    110000   0.99146775     0.0024326156   16.938955      1.4870529      18.426008     -3.6642039    
    111000   0.99901726     0.001890517    16.926836      1.498376       18.425212     -3.6741507    
    112000   0.9931959     -0.011156968    16.934816      1.4896449      18.424461     -3.6702006    
    113000   0.98851993    -0.0066793358   16.941226      1.4826316      18.423857     -3.6557614    
    114000   1.0014037     -0.0003146385   16.921488      1.5019553      18.423443     -3.6746306    
    115000   1.0004075      0.014176789    16.922618      1.5004612      18.42308      -3.6893865    
    116000   0.99833752     0.0092471157   16.925375      1.4973565      18.422732     -3.6819811    
    117000   0.99692651    -0.0017327366   16.9272        1.4952402      18.42244      -3.6739507    
    118000   0.99516595     0.0026182009   16.929634      1.4925996      18.422234     -3.6705299    
    119000   1.0087357      0.0088550443   16.909169      1.5129523      18.422121     -3.6935117    
    120000   1.0192512     -0.011757633    16.893196      1.5287239      18.42192      -3.7120595    
    121000   0.99985858     0.010570016    16.921865      1.4996379      18.421503     -3.6957916    
    122000   1.0131865     -0.0058829879   16.9013        1.5196278      18.420928     -3.7006782    
    123000   0.99619035     0.00078533235  16.926075      1.4941361      18.420211     -3.6884319    
    124000   0.9847488      0.0043146473   16.942604      1.4769755      18.41958      -3.6732671    
    125000   0.99970219    -0.010644502    16.91973       1.4994033      18.419133     -3.6887981    
    126000   1.0007246      0.010349291    16.917752      1.5009369      18.418689     -3.6974631    
    127000   0.9904823      0.0022921454   16.932534      1.4855749      18.418109     -3.6738387    
    128000   0.99391877    -0.0044542257   16.926868      1.4907291      18.417597     -3.6754036    
    129000   1.0036014     -0.0013555162   16.911932      1.5052515      18.417183     -3.6894431    
    130000   1.0078097      0.0093902722   16.90511       1.5115634      18.416673     -3.7045153    
    131000   1.0128079     -0.0024824002   16.896909      1.51906        18.415969     -3.6973456    
    132000   1.0059464     -0.014164424    16.906414      1.5087687      18.415182     -3.6916208    
    133000   1.0105967     -0.0053698078   16.898524      1.5157435      18.414268     -3.7126386    
    134000   1.0054005      0.01281436     16.905158      1.50795        18.413108     -3.6980447    
    135000   1.0084615      0.018960563    16.899218      1.512541       18.411759     -3.7082716    
    136000   1.003149       0.0039421797   16.90553       1.504573       18.410103     -3.7009041    
    137000   1.0070967     -0.0085101413   16.897811      1.510494       18.408305     -3.705719     
    138000   1.0034044      0.0055346134   16.90139       1.5049561      18.406346     -3.7070385    
    139000   1.01406        0.0059311963   16.883222      1.5209378      18.40416      -3.7226168    
    140000   1.0096517     -0.010282547    16.887365      1.5143261      18.401691     -3.7402934    
    141000   0.99968206    -0.0071200187   16.899602      1.4993731      18.398975     -3.7012502    
    142000   0.99411148    -0.0092883552   16.905307      1.4910181      18.396325     -3.6938883    
    143000   1.0075236      0.01285868     16.882651      1.5111342      18.393785     -3.7210977    
    144000   1.0094092     -0.002450013    16.87719       1.5139624      18.391152     -3.7213919    
    145000   0.99236915    -0.0060752361   16.900008      1.4884049      18.388413     -3.7108147    
    146000   1.0106687      0.002917369    16.869747      1.5158514      18.385599     -3.7371767    
    147000   1.0136319      0.015277877    16.862295      1.5202959      18.382591     -3.743847     
    148000   1.0113097     -0.010072934    16.862488      1.5168129      18.379301     -3.7336054    
    149000   0.99882008     0.016482589    16.877891      1.4980803      18.375971     -3.727994     
    150000   1.0050439     -0.0060230192   16.865079      1.5074151      18.372494     -3.7457983    
    151000   1.0074055     -0.011150757    16.857948      1.5109571      18.368905     -3.7386834    
    152000   0.99472215     0.0038840189   16.873369      1.491934       18.365303     -3.7358685    
    153000   1.008999      -0.008278633    16.84831       1.5133471      18.361657     -3.7550535    
    154000   1.0125282      0.019550844    16.839282      1.5186404      18.357922     -3.7536086    
    155000   1.0083506     -0.0014008012   16.841799      1.5123746      18.354174     -3.7669391    
    156000   1.0017766     -0.0036371437   16.847888      1.5025146      18.350403     -3.7627878    
    157000   1.0052793      0.015876679    16.838795      1.5077681      18.346563     -3.7611054    
    158000   0.99191979    -0.0010587169   16.855014      1.4877309      18.342745     -3.7470598    
    159000   1.0075478     -0.0085777796   16.827983      1.5111705      18.339153     -3.7686021    
    160000   1.0030361     -1.4886456e-06  16.831194      1.5044037      18.335598     -3.7651715    
    161000   1.000975       0.0093408886   16.830707      1.5013124      18.332019     -3.7731379    
    162000   0.9982892     -0.0057426974   16.831173      1.4972841      18.328457     -3.7776032    
    163000   0.99517579     0.0078718586   16.832309      1.4926144      18.324923     -3.7706162    
    164000   0.99380226     0.019781029    16.83099       1.4905543      18.321544     -3.7742763    
    165000   0.99405636     0.0077797297   16.827342      1.4909354      18.318277     -3.7810301    
    166000   0.99982265    -0.00093155304  16.815512      1.499584       18.315096     -3.7844002    
    167000   0.99042937    -0.0021912129   16.826548      1.4854955      18.312043     -3.7846083    
    168000   1.0023434     -0.0036493028   16.805755      1.5033647      18.30912      -3.7909031    
    169000   1.0009903      0.0012496152   16.804859      1.5013353      18.306194     -3.7874727    
    170000   0.99454875     0.0048260817   16.811649      1.4916739      18.303323     -3.8004722    
    171000   0.99986667     0.0015220532   16.80088       1.49965        18.30053      -3.7965454    
    172000   0.99797115    -0.0068916439   16.801094      1.496807       18.297901     -3.8001607    
    173000   0.99550215     0.0014908263   16.802281      1.4931039      18.295385     -3.8026343    
    174000   1.0017926     -0.0051364534   16.790243      1.5025387      18.292782     -3.8070357    
    175000   0.99443264    -0.0082600576   16.79873       1.4914998      18.290229     -3.8030573    
    176000   1.0042965     -0.010569008    16.781668      1.5062941      18.287962     -3.8226666    
    177000   1.0151151      0.00096915975  16.763328      1.5225204      18.285848     -3.8350494    
    178000   0.99238152     0.01163967     16.795199      1.4884234      18.283622     -3.8265612    
    179000   0.99318166     0.0034715305   16.791721      1.4896235      18.281345     -3.807859     
    180000   0.99623127    -0.0078627532   16.785061      1.4941975      18.279259     -3.819246     
    181000   1.0056814     -0.0075343935   16.768884      1.5083713      18.277255     -3.8298417    
    182000   1.0046885      0.0035740146   16.768352      1.5068821      18.275234     -3.8382783    
    183000   0.98832466    -0.0020953875   16.790812      1.4823387      18.273151     -3.8243073    
    184000   0.99757256     0.0026630241   16.774884      1.4962092      18.271093     -3.8346373    
    185000   1.0040787     -0.0018347113   16.763096      1.5059675      18.269063     -3.8366912    
    186000   1.0017097     -0.013871735    16.764646      1.5024142      18.26706      -3.8257372    
    187000   0.99279644    -0.0053426035   16.776043      1.4890457      18.265089     -3.8348463    
    188000   1.001113       0.0087324409   16.761612      1.5015193      18.263131     -3.8446643    
    189000   0.99024938    -0.009663052    16.775918      1.4852255      18.261144     -3.8270285    
    190000   1.0048563     -0.0042807426   16.752125      1.5071338      18.259259     -3.8428247    
    191000   0.99797901     0.018189761    16.760579      1.4968188      18.257398     -3.8337686    
    192000   0.98973096    -0.011891183    16.771179      1.484448       18.255627     -3.8366124    
    193000   0.99221878    -0.010298788    16.765895      1.4881793      18.254075     -3.8379733    
    194000   0.99170849     0.015430841    16.765283      1.487414       18.252697     -3.8498944    
    195000   0.99736603     0.00046410108  16.755439      1.4958994      18.251339     -3.8623163    
    196000   0.9955668      0.004454453    16.756802      1.4932009      18.250003     -3.8460038    
    197000   0.99704215     0.00065922727  16.753402      1.4954137      18.248816     -3.8464592    
    198000   0.99611104     0.0021950919   16.753735      1.4940172      18.247753     -3.8379846    
    199000   0.9931775      0.0083550372   16.757187      1.4896173      18.246804     -3.8518818    
    200000   0.99542335    -0.023651706    16.7529        1.4929857      18.245886     -3.8530775    
    201000   0.99299571    -0.004261428    16.755681      1.4893446      18.245025     -3.8565159    
    202000   1.0049693     -0.0085281589   16.736936      1.5073033      18.244239     -3.8666543    
    203000   0.99341406    -0.011933508    16.753481      1.4899721      18.243453     -3.8560466    
    204000   1.0119264     -0.007136779    16.72502       1.5177379      18.242758     -3.8738346    
    205000   0.99606634    -0.0039803223   16.748162      1.4939501      18.242112     -3.8663212    
    206000   0.99644954    -0.0057253139   16.746971      1.4945248      18.241495     -3.855354     
    207000   1.0015997     -0.01122945     16.738693      1.5022493      18.240942     -3.861457     
    208000   1.0019819      0.00041455937  16.737588      1.5028226      18.240411     -3.8716389    
    209000   0.99454687    -0.020291651    16.74817       1.4916711      18.239841     -3.8704791    
    210000   1.0045543     -0.0095061839   16.732686      1.5066808      18.239367     -3.8650983    
    211000   1.0082003     -0.00087393513  16.726816      1.5121492      18.238966     -3.8782047    
    212000   0.99779207    -0.0021816199   16.741972      1.4965384      18.23851      -3.856466     
    213000   0.98790268    -0.0014273426   16.756403      1.4817058      18.238109     -3.8592395    
    214000   0.99633472     0.010652896    16.743474      1.4943526      18.237827     -3.868889     
    215000   0.99761024     0.00084396058  16.741294      1.4962657      18.237559     -3.8661664    
    216000   0.99448779    -0.0090770017   16.745807      1.4915825      18.23739      -3.8514442    
    217000   0.99109813    -0.015146397    16.750889      1.4864985      18.237388     -3.8568116    
    218000   0.99460783     0.026260816    16.745802      1.4917626      18.237564     -3.8651576    
    219000   0.9937601      0.011102198    16.747256      1.4904911      18.237747     -3.860901     
    220000   0.99011581    -0.018506       16.753026      1.4850252      18.238052     -3.8605325    
    221000   0.9956819      0.01234056     16.745144      1.4933735      18.238517     -3.8647845    
    222000   0.99139677     0.0049957254   16.752145      1.4869464      18.239092     -3.8468365    
    223000   1.0054182     -0.0043197079   16.731778      1.5079765      18.239754     -3.866336     
    224000   0.99779841    -0.0066416025   16.743901      1.4965479      18.240449     -3.8600205    
    225000   1.0012939     -0.0075032891   16.739405      1.5017906      18.241196     -3.8597301    
    226000   0.99892105     0.011856966    16.743868      1.4982317      18.2421       -3.8758699    
    227000   0.99899566    -0.007028351    16.744709      1.4983436      18.243053     -3.8634068    
    228000   1.0027332      4.9217952e-05  16.740154      1.5039493      18.244103     -3.8760981    
    229000   0.9969232      0.0038480769   16.74982       1.4952353      18.245055     -3.8630652    
    230000   0.99267653    -0.014379834    16.756999      1.4888659      18.245865     -3.8616063    
    231000   0.99632563    -0.0015778996   16.752356      1.494339       18.246695     -3.8697482    
    232000   1.0059547      0.0038713296   16.738636      1.5087812      18.247417     -3.8716972    
    233000   1.0046475     -0.0068802863   16.741219      1.5068206      18.248039     -3.8576423    
    234000   1.0042284     -0.012675267    16.742461      1.506192       18.248653     -3.8601079    
    235000   0.98671429     0.011477917    16.769381      1.4799234      18.249305     -3.8429576    
    236000   0.99346425     0.01214552     16.759961      1.4900473      18.250009     -3.8560329    
    237000   1.0075181     -0.0061461239   16.739598      1.511126       18.250724     -3.8690214    
    238000   1.0061013     -0.011023412    16.742388      1.5090011      18.251389     -3.8627101    
    239000   0.9997101      0.0044887505   16.752548      1.4994152      18.251963     -3.857993     
    240000   0.99820149    -0.00063549064  16.755335      1.4971525      18.252487     -3.8578022    
    241000   1.0105346      0.0028848681   16.737316      1.5156504      18.252966     -3.8713402    
    242000   1.0043493     -0.0047318368   16.746868      1.5063733      18.253241     -3.853936     
    243000   0.99250189    -0.0021637855   16.764876      1.488604       18.25348      -3.8494277    
    244000   1.0083846     -0.0028512149   16.741334      1.5124256      18.25376      -3.8667521    
    245000   1.0024955      0.015207994    16.750328      1.5035928      18.253921     -3.8551428    
    246000   1.0106942      0.0018116267   16.738028      1.5158897      18.253918     -3.864624     
    247000   0.99595694    -0.0077746968   16.759951      1.493786       18.253737     -3.8470658    
    248000   1.0001837      0.011933972    16.753297      1.5001256      18.253423     -3.8659585    
    249000   1.004858      -0.030157141    16.745917      1.5071362      18.253053     -3.856958     
    250000   1.0014863      0.011398072    16.750677      1.5020793      18.252757     -3.8532372    
    251000   1.0032897      0.016679685    16.747507      1.5047841      18.252291     -3.8550342    
    252000   0.99572066     0.00051253192  16.758265      1.4934316      18.251697     -3.8580184    
    253000   1.0190156      0.0045158682   16.722641      1.5283705      18.251012     -3.8799692    
    254000   1.0167965     -0.0035739267   16.725158      1.5250423      18.2502       -3.8834055    
    255000   1.0074964     -0.013310693    16.738115      1.5110934      18.249208     -3.8820757    
    256000   1.0083143     -0.004201725    16.735597      1.5123203      18.247918     -3.8705034    
    257000   1.0106998      0.010419945    16.730474      1.515898       18.246372     -3.8807372    
    258000   1.0103922     -0.0067912462   16.729138      1.5154367      18.244575     -3.8768727    
    259000   1.0083904     -0.008615551    16.730182      1.5124344      18.242616     -3.870403     
    260000   1.0116087     -0.0048351662   16.723277      1.5172613      18.240538     -3.8872557    
    261000   1.0040577      0.018815379    16.732314      1.5059359      18.23825      -3.8667353    
    262000   1.0002425      0.00019699134  16.735647      1.5002137      18.235861     -3.8698913    
    263000   0.9991199      0.0038565326   16.734876      1.49853        18.233406     -3.8812461    
    264000   1.0048638      0.007484503    16.723761      1.507145       18.230906     -3.8896651    
    265000   0.99189023     0.010318248    16.740616      1.4876866      18.228303     -3.8630572    
    266000   0.99233308    -0.0025774968   16.737449      1.4883508      18.2258       -3.8725092    
    267000   0.99746124    -0.0056588353   16.727441      1.4960422      18.223483     -3.8709574    
    268000   0.99724149     0.00085347332  16.725615      1.4957126      18.221327     -3.8778519    
    269000   1.0091418      0.008883438    16.705585      1.5135613      18.219146     -3.9035915    
    270000   0.99417623     0.0098834174   16.725728      1.4911152      18.216843     -3.8805738    
    271000   0.99075671    -0.0049442984   16.728635      1.4859864      18.214622     -3.8788195    
    272000   1.003527      -0.0053078221   16.707304      1.50514        18.212444     -3.891687     
    273000   0.99454524     0.017644662    16.718685      1.4916687      18.210354     -3.8840545    
    274000   0.98697714     0.0011330133   16.727992      1.4803177      18.208309     -3.8809205    
    275000   0.98111838     0.0025016622   16.734891      1.4715304      18.206422     -3.8680936    
    276000   1.0015877      0.0028347166   16.702547      1.5022313      18.204778     -3.8916173    
    277000   1.0014568     -0.0006260068   16.701237      1.5020349      18.203272     -3.8914717    
    278000   0.99446165     0.021767512    16.710399      1.4915433      18.201943     -3.893013     
    279000   0.99041384    -0.0033481364   16.715248      1.4854722      18.20072      -3.8839659    
    280000   0.9925638      0.007861619    16.710903      1.4886968      18.1996       -3.9018426    
    281000   0.99891472    -0.0049597194   16.700459      1.4982222      18.198681     -3.8975461    
    282000   0.99458272     0.00047465132  16.706254      1.4917249      18.197978     -3.8831155    
    283000   0.99899691    -0.0022702802   16.699071      1.4983455      18.197416     -3.8903221    
    284000   0.98755145    -0.0015631617   16.71575       1.481179       18.196929     -3.8806655    
    285000   0.97714915    -0.00040303019  16.731287      1.4655771      18.196864     -3.8766768    
    286000   0.99206712     0.00802943     16.709337      1.4879519      18.197289     -3.9017703    
    287000   0.99895138     0.0095509469   16.699658      1.4982772      18.197935     -3.8979258    
    288000   0.98802163    -0.015475823    16.716878      1.4818842      18.198763     -3.8808062    
    289000   0.98625803    -0.02231991     16.720683      1.4792391      18.199922     -3.8858498    
    290000   1.0046477      0.0020270486   16.694608      1.5068208      18.201429     -3.900339     
    291000   1.0065929     -0.005586052    16.693327      1.5097384      18.203065     -3.9161861    
    292000   0.98911239     0.010934897    16.721127      1.4835202      18.204647     -3.9021583    
    293000   1.0180385      0.00060374972  16.679371      1.526905       18.206276     -3.9099573    
    294000   1.0050345      0.013903536    16.700529      1.507401       18.20793      -3.8928013    
    295000   1.0039817     -0.011523139    16.703681      1.5058219      18.209503     -3.9021277    
    296000   0.99063754     0.0090153407   16.725356      1.4858077      18.211164     -3.8880788    
    297000   0.99924199     0.014708215    16.714189      1.4987131      18.212902     -3.8862633    
    298000   1.0081078      0.020745155    16.702685      1.5120105      18.214696     -3.8932548    
    299000   1.0042233     -0.0055634571   16.710309      1.5061843      18.216494     -3.8973839    
    300000   0.98906567     0.0044443006   16.734781      1.4834501      18.218231     -3.8729161    
    301000   0.99415048     0.017173866    16.728937      1.4910766      18.220013     -3.8662593    
    302000   0.99486592    -0.0022714705   16.729705      1.4921497      18.221855     -3.8851062    
    303000   1.0102838     -0.014370049    16.708361      1.5152741      18.223635     -3.8906942    
    304000   1.0046261      0.004880881    16.718689      1.5067885      18.225478     -3.8817984    
    305000   1.0088028      0.0046920013   16.714247      1.5130528      18.2273       -3.8945578    
    306000   1.0142309     -0.0095387826   16.707748      1.5211943      18.228942     -3.8975516    
    307000   1.0163585      0.0095576396   16.705903      1.5243852      18.230288     -3.9034654    
    308000   1.0033626     -0.015752029    16.726418      1.5048933      18.231311     -3.880824     
    309000   0.99523559     0.011814912    16.739595      1.4927041      18.232299     -3.8713402    
    310000   1.01022       -0.0021561101   16.718038      1.5151785      18.233217     -3.885331     
    311000   1.0046889      0.010303079    16.727032      1.5068827      18.233914     -3.8779713    
    312000   0.99772314    -0.0123579      16.73806       1.4964351      18.234495     -3.8756425    
    313000   1.0055951     -0.0041724181   16.726854      1.5082418      18.235096     -3.8745214    
    314000   1.0023677      0.013261282    16.732208      1.5034012      18.235609     -3.8782078    
    315000   0.999764       0.0039347848   16.736366      1.499496       18.235862     -3.8867179    
    316000   1.0074228     -0.017179764    16.72487       1.5109832      18.235853     -3.8886246    
    317000   1.0055519     -0.0072061301   16.727584      1.5081771      18.235761     -3.8846474    
    318000   1.0089192     -0.0093759793   16.72239       1.5132275      18.235618     -3.8852345    
    319000   1.0080371      0.013804587    16.723389      1.5119045      18.235294     -3.8793031    
    320000   1.0044874      0.0086497826   16.728076      1.5065804      18.234656     -3.8711262    
    321000   0.99085232    -0.019061637    16.747859      1.4861299      18.233989     -3.8502406    
    322000   0.99420355    -0.0074578469   16.742304      1.4911562      18.23346      -3.8576097    
    323000   0.99427667     0.0015744134   16.741784      1.4912659      18.23305      -3.8755932    
    324000   1.0048964     -0.0037132325   16.725403      1.5071939      18.232597     -3.8736166    
    325000   1.0035419     -0.0029033712   16.726836      1.5051623      18.231998     -3.8796586    
    326000   1.0102295     -0.0046815446   16.71604       1.5151927      18.231233     -3.8815622    
    327000   1.003606       0.00857661     16.725053      1.5052585      18.230311     -3.8857718    
    328000   1.0079215      0.0031224039   16.71744       1.5117311      18.229171     -3.8919227    
    329000   1.0044205      0.0038428434   16.721271      1.5064801      18.227752     -3.8810936    
    330000   0.99578259    -0.0011443053   16.732649      1.4935245      18.226174     -3.8794516    
    331000   1.0052746      0.0029850442   16.716773      1.5077611      18.224534     -3.8834227    
    332000   1.0081522      0.0062177756   16.71066       1.5120771      18.222737     -3.9005112    
    333000   1.0080008     -0.0036176178   16.70887       1.51185        18.22072      -3.9005385    
    334000   0.99311625    -0.0060068138   16.729016      1.4895254      18.218541     -3.881072     
    335000   0.98534003    -0.018511167    16.738583      1.4778622      18.216445     -3.8709804    
    336000   1.0086256      0.006886506    16.701745      1.5127871      18.214532     -3.8940721    
    337000   1.0193844      0.001715959    16.683606      1.5289236      18.212529     -3.9178248    
    338000   1.0047459     -0.0026128029   16.70346       1.5069681      18.210428     -3.8950062    
    339000   0.98922601    -0.010086332    16.724633      1.4836906      18.208323     -3.8974297    
    340000   0.99716785    -0.010989822    16.710793      1.4956022      18.206396     -3.8899479    
    341000   0.99160078     0.0057816103   16.717465      1.4872524      18.204717     -3.8841082    
    342000   1.0019417      0.0042029964   16.70043       1.5027623      18.203192     -3.9060184    
    343000   0.99279774     0.0069633632   16.712556      1.4890477      18.201604     -3.8958485    
    344000   0.99631152    -0.01102378     16.705834      1.4943178      18.200152     -3.8979999    
    345000   1.0013252      0.0038858314   16.697017      1.5018376      18.198855     -3.89314      
    346000   0.98730598    -0.0085844262   16.716942      1.4808109      18.197753     -3.8811395    
    347000   0.99963702     0.0023680625   16.697532      1.4993056      18.196837     -3.903602     
    348000   0.99220277    -0.0048753778   16.707851      1.4881553      18.196006     -3.9000926    
    349000   0.99232297     0.0056916367   16.706878      1.4883356      18.195214     -3.8990434    
    350000   0.99754305    -0.021861921    16.698354      1.4961649      18.194519     -3.906472     
    351000   1.0028695      0.0040589009   16.689685      1.5041538      18.193839     -3.9126201    
    352000   1.0007437      0.025431092    16.692229      1.5009654      18.193195     -3.9094088    
    353000   0.9971406     -0.0014603484   16.696975      1.4955613      18.192537     -3.8978928    
    354000   0.98832247    -0.0069440733   16.70966       1.4823355      18.191996     -3.899013     
    355000   0.99134392    -0.0060542737   16.704848      1.4868672      18.191715     -3.899053     
    356000   0.99375229    -0.0077364456   16.70116       1.4904794      18.191639     -3.9186184    
    357000   0.99888995     0.0037915585   16.693452      1.4981851      18.191637     -3.9111415    
    358000   0.99033727    -0.0020304973   16.706324      1.4853574      18.191682     -3.9081242    
    359000   1.0011193      0.013048575    16.690267      1.5015287      18.191795     -3.9037416    
    360000   1.0050864      0.0040234681   16.68456       1.5074789      18.192038     -3.9083267    
    361000   1.0023361     -0.018528625    16.689005      1.5033538      18.192359     -3.9108875    
    362000   0.99660422     7.6687002e-05  16.698059      1.4947568      18.192816     -3.9142236    
    363000   0.99793912    -0.0044900912   16.696708      1.496759       18.193467     -3.9159642    
    364000   1.006459       0.00050126248  16.684627      1.5095375      18.194164     -3.923355     
    365000   0.99618014     0.0063392954   16.700806      1.4941208      18.194927     -3.9091859    
    366000   0.99566932    -0.0035766249   16.702479      1.4933546      18.195834     -3.9107907    
    367000   0.99905648     0.0084598938   16.69843       1.4984349      18.196865     -3.9153537    
    368000   1.0067234     -0.0047287346   16.688038      1.5099341      18.197972     -3.9066607    
    369000   0.98902526    -0.0054792224   16.715837      1.4833895      18.199226     -3.8819887    
    370000   0.98288028    -0.016113291    16.726627      1.474173       18.2008       -3.8774582    
    371000   0.99672982     0.003972186    16.707777      1.4949452      18.202722     -3.8877901    
    372000   1.0070566      0.0099923034   16.694485      1.5104339      18.204919     -3.8965421    
    373000   0.99509827    -0.00099398114  16.714807      1.4924981      18.207305     -3.8837512    
    374000   0.99570993    -0.006451327    16.716434      1.4934155      18.209849     -3.8819087    
    375000   1.0015871     -0.0064152054   16.710372      1.5022304      18.212603     -3.9034521    
    376000   1.0108386     -0.0085360738   16.699192      1.5161063      18.215298     -3.9096817    
    377000   1.0067206     -0.00011085324  16.707944      1.5099299      18.217874     -3.9148395    
    378000   0.99393507     0.010745881    16.729579      1.4907535      18.220332     -3.8876235    
    379000   1.0107581     -0.012247264    16.706736      1.5159855      18.222721     -3.8995194    
    380000   1.0066544      0.006350161    16.715121      1.5098306      18.224952     -3.8930918    
    381000   1.0004876      0.012795385    16.726312      1.5005813      18.226894     -3.8921391    
    382000   1.0090546      0.012804574    16.715025      1.5134305      18.228455     -3.8917351    
    383000   1.0018262      0.0068187421   16.727141      1.502589       18.22973      -3.8897319    
    384000   1.0082212      0.0078574023   16.718712      1.5121805      18.230893     -3.8855129    
    385000   1.0164723      0.0096613296   16.707279      1.524556       18.231835     -3.8901596    
    386000   1.0130143     -0.019597569    16.713006      1.5193695      18.232376     -3.8880474    
    387000   1.0071625      0.0017787355   16.722103      1.5105927      18.232695     -3.8827808    
    388000   0.99114332     0.0056388515   16.746284      1.4865663      18.23285      -3.8807262    
    389000   1.0029731      0.0031294967   16.728482      1.5043093      18.232791     -3.8845445    
    390000   1.0115615      0.0080055401   16.715324      1.5171905      18.232514     -3.9004551    
    391000   1.0217424     -0.0078220973   16.699408      1.5324603      18.231868     -3.9165415    
    392000   1.0126077     -0.0044656315   16.712106      1.5187596      18.230866     -3.8875631    
    393000   1.0028917     -0.020166192    16.725375      1.5041871      18.229562     -3.8807061    
    394000   0.98933647    -0.0044599068   16.744307      1.4838563      18.228164     -3.8644437    
    395000   1.0070483     -0.0020079235   16.71633       1.5104214      18.226751     -3.8875681    
    396000   1.0110379      0.0052658103   16.708586      1.5164051      18.224991     -3.9098579    
    397000   1.0028397     -0.0011860376   16.718736      1.5041092      18.222846     -3.8915964    
    398000   0.99521729     0.00471792     16.727748      1.4926767      18.220424     -3.8872328    
    399000   1.0000235     -0.01119041     16.717915      1.4998852      18.2178       -3.8920669    
    400000   1.0081706      0.0037432295   16.702801      1.5121046      18.214906     -3.9114406    
    401000   0.9947384      0.01469331     16.719479      1.4919584      18.211437     -3.8897034    
    402000   0.99240899     0.0060735701   16.719243      1.4884646      18.207707     -3.8921173    
    403000   1.0084206     -0.001977698    16.691356      1.5124796      18.203835     -3.9037111    
    404000   0.99901759     0.024881194    16.701572      1.4983765      18.199949     -3.9003297    
    405000   1.0063812     -0.0065411877   16.686625      1.5094209      18.196046     -3.9233392    
    406000   0.98519107    -0.012391627    16.714781      1.4776388      18.19242      -3.889079     
    407000   0.9970851      0.014467961    16.694024      1.4954781      18.189502     -3.8926429    
    408000   0.9944207      0.0055139163   16.695791      1.4914819      18.187273     -3.8989347    
    409000   1.000595      -0.0021517936   16.684867      1.5007424      18.18561      -3.9102201    
    410000   0.99524809    -0.013336584    16.691688      1.4927228      18.184411     -3.903272     
    411000   0.99194307     0.0034045129   16.695869      1.4877658      18.183634     -3.9256917    
    412000   1.0051433      0.0045123043   16.675491      1.5075642      18.183055     -3.9240717    
    413000   1.0030608     -0.011768736    16.678175      1.5044408      18.182615     -3.927947     
    414000   0.99175971    -0.018071715    16.694849      1.4874908      18.18234      -3.9084992    
    415000   0.99020291    -0.0031573053   16.697164      1.4851558      18.18232      -3.9045328    
    416000   0.99506881    -0.012345012    16.690078      1.492454       18.182532     -3.9295255    
    417000   0.99952959     0.0066756287   16.683665      1.4991445      18.182809     -3.9184834    
    418000   0.99616484     0.0014641342   16.689051      1.4940978      18.183148     -3.9164401    
    419000   1.0009284      0.0068564218   16.68239       1.5012425      18.183633     -3.9142068    
    420000   0.99099487     0.012149047    16.6979        1.4863437      18.184244     -3.9035774    
    421000   1.0007547     -0.00032309714  16.683929      1.500982       18.184911     -3.9152381    
    422000   0.98808613    -0.0014796678   16.703754      1.481981       18.185735     -3.8993714    
    423000   0.99907765     0.0015834373   16.688389      1.4984666      18.186855     -3.9208667    
    424000   1.0022363      0.015809982    16.684912      1.5032042      18.188116     -3.9222171    
    425000   1.0005689     -0.0071038096   16.688676      1.5007033      18.189379     -3.9161212    
    426000   0.99796936     0.0063850095   16.693933      1.4968043      18.190737     -3.9064813    
    427000   0.98984268     0.0021453362   16.70757       1.4846155      18.192185     -3.9000489    
    428000   1.0007644     -0.0092464837   16.692897      1.5009965      18.193894     -3.9115195    
    429000   0.99600287     0.011583584    16.70191       1.4938549      18.195765     -3.9026741    
    430000   1.0005512      0.0013145208   16.696999      1.5006767      18.197676     -3.9012165    
    431000   0.99179878     0.0015102305   16.712099      1.4875494      18.199648     -3.8896473    
    432000   0.99609928    -0.0069862582   16.707703      1.4939995      18.201703     -3.8888383    
    433000   1.0006967      0.0052473188   16.702986      1.5008949      18.203881     -3.9007187    
    434000   1.0153352      0.00017721386  16.683133      1.5228505      18.205984     -3.913608     
    435000   1.0166394      0.0057447425   16.682958      1.5248066      18.207765     -3.9268347    
    436000   1.0021852     -0.022593045    16.706095      1.5031275      18.209223     -3.8991275    
    437000   1.0000614      0.0013056426   16.710697      1.499942       18.210639     -3.8875119    
    438000   1.0040441      0.011842242    16.706235      1.5059155      18.212151     -3.8913834    
    439000   0.99707763    -0.0096757117   16.718188      1.4954669      18.213655     -3.8814184    
    440000   1.0120573      0.0070431599   16.697177      1.5179341      18.215111     -3.9032242    
    441000   1.0050112      0.0064750155   16.708933      1.507366       18.216299     -3.8833282    
    442000   1.0050196     -0.010259467    16.709998      1.5073786      18.217376     -3.88851      
    443000   1.0055801     -0.00035835473  16.710061      1.5082193      18.21828      -3.9046576    
    444000   1.0045029     -0.00097930099  16.712439      1.5066036      18.219043     -3.8876201    
    445000   1.0120474     -0.00060441888  16.701756      1.5179193      18.219675     -3.900518     
    446000   1.0018456     -0.0090456778   16.717599      1.502618       18.220217     -3.8880994    
    447000   0.99671346     0.014972566    16.725824      1.4949207      18.220744     -3.8865469    
    448000   1.0068449      0.013350342    16.710969      1.5101163      18.221085     -3.9043617    
    449000   1.0068498     -0.012366363    16.710993      1.5101237      18.221117     -3.9015851    
    450000   1.0055353     -0.020422687    16.712756      1.5081521      18.220908     -3.8873787    
    451000   0.99949957    -8.0559956e-06  16.721499      1.4990994      18.220599     -3.8849983    
    452000   1.0078389      0.0058679755   16.708606      1.5116071      18.220213     -3.8959151    
    453000   1.0047449      0.00064205491  16.71266       1.5069667      18.219627     -3.8982869    
    454000   1.0028894     -0.0059082438   16.714557      1.5041837      18.218741     -3.9011309    
    455000   0.99571031    -0.0055309619   16.723967      1.4934161      18.217383     -3.8993305    
    456000   1.0034654     -0.0046315996   16.710524      1.5050476      18.215571     -3.9008205    
    457000   1.0097217      0.012394622    16.698799      1.5144311      18.21323      -3.9091621    
    458000   0.98784496     0.0023243283   16.728763      1.4816193      18.210382     -3.8876165    
    459000   1.0004654      0.0031045175   16.706593      1.500548       18.207141     -3.9050148    
    460000   1.00022        0.00026158049  16.703224      1.50018        18.203404     -3.9048189    
    461000   1.0043524      0.0065735298   16.692852      1.506378       18.19923      -3.9120117    
    462000   0.99407845     0.0049799479   16.704013      1.4909686      18.194982     -3.9079718    
    463000   0.99628232    -0.007722924    16.696597      1.494274       18.190871     -3.8967537    
    464000   0.99069585     0.013409127    16.701405      1.4858952      18.1873       -3.9005309    
    465000   0.99069983    -0.0060092605   16.69843       1.4859011      18.184331     -3.9072689    
    466000   0.99342385    -0.0063246469   16.691776      1.4899868      18.181763     -3.9046143    
    467000   0.987438      -0.0068106616   16.698703      1.4810089      18.179712     -3.9090876    
    468000   0.99196848     0.011399309    16.690263      1.4878039      18.178067     -3.9091892    
    469000   0.99944282    -0.0077155567   16.677703      1.4990143      18.176717     -3.9140633    
    470000   1.0089107     -0.0084869611   16.662544      1.5132147      18.175758     -3.9327704    
    471000   1.0065255      0.0011173888   16.665408      1.5096373      18.175045     -3.9267827    
    472000   0.99165158     0.010051761    16.687104      1.4873286      18.174433     -3.9205074    
    473000   1.0014346     -0.011611667    16.671872      1.5020017      18.173874     -3.9470004    
    474000   0.98639758    -0.011853604    16.693949      1.4794484      18.173397     -3.914887     
    475000   0.98504435     0.00081775208  16.695679      1.4774188      18.173098     -3.9125901    
    476000   0.99201695    -0.0022068355   16.685212      1.4878766      18.173089     -3.914413     
    477000   0.99477552     0.0017059906   16.681453      1.4920141      18.173468     -3.9286599    
    478000   0.9981829     -0.0047533791   16.677001      1.4971246      18.174125     -3.9295609    
    479000   0.98994882    -0.0069385815   16.690227      1.4847747      18.175002     -3.904515     
    480000   0.99494123    -0.0091921934   16.683936      1.4922626      18.176199     -3.9078234    
    481000   0.99812734     0.0060712335   16.680774      1.4970413      18.177815     -3.914447     
    482000   1.0011472      0.012084669    16.678145      1.5015706      18.179715     -3.9111832    
    483000   0.99575522    -0.0044578449   16.688353      1.4934835      18.181837     -3.9186373    
    484000   0.9984225     -0.0029283574   16.686652      1.497484       18.184136     -3.9025401    
    485000   0.98587597    -0.0044417014   16.707952      1.4786661      18.186618     -3.9015018    
    486000   1.0059783      0.0013223556   16.680461      1.5088166      18.189278     -3.9260648    
    487000   1.0023962     -0.0044734471   16.688478      1.5034439      18.191922     -3.9164902    
    488000   0.98988158    -0.0071035893   16.709923      1.4846739      18.194597     -3.8991361    
    489000   1.0084781      0.011920441    16.684794      1.5125659      18.19736      -3.9222986    
    490000   1.0034179     -0.0011150673   16.694951      1.5049764      18.199928     -3.9111469    
    491000   1.0010227     -0.012435363    16.700894      1.5013838      18.202278     -3.9097824    
    492000   0.98986924     0.0060177924   16.71983       1.4846554      18.204485     -3.8914595    
    493000   0.9929903     -0.0074594636   16.717217      1.4893365      18.206554     -3.8965218    
    494000   0.99571054     0.0040904191   16.715056      1.4934165      18.208472     -3.9031697    
    495000   1.0025696      0.0074984824   16.706311      1.503704       18.210015     -3.9033506    
    496000   1.0131569     -0.0035215143   16.691542      1.5195834      18.211126     -3.9139118    
    497000   0.98821288     0.0015146845   16.729757      1.4821711      18.211928     -3.8787432    
    498000   0.99064795    -0.015546919    16.726831      1.4858233      18.212655     -3.889911     
    499000   1.0033681      0.0020394599   16.708541      1.5049016      18.213443     -3.8956277    
    500000   1.0028616      0.017169185    16.709945      1.504142       18.214087     -3.9080704    
    501000   1.0071711     -0.014621965    16.703839      1.5106056      18.214445     -3.9175556    
    502000   1.0087453      0.0039929066   16.701597      1.5129666      18.214564     -3.9038177    
    503000   0.99466271    -0.0098827582   16.722672      1.4918449      18.214517     -3.8907867    
    504000   0.99553883     0.0036776095   16.721301      1.4931589      18.21446      -3.889497     
    505000   1.0071017      0.0047802037   16.703845      1.5105015      18.214346     -3.9013836    
    506000   1.0034945      0.0077564215   16.709009      1.5050912      18.2141       -3.9070907    
    507000   1.0021167     -0.018987871    16.710687      1.5030247      18.213712     -3.9080824    
    508000   0.99542819    -0.006571098    16.720302      1.492993       18.213295     -3.8890961    
    509000   1.00286       -0.0015821031   16.708744      1.5041396      18.212884     -3.9093837    
    510000   1.003596       0.0090344753   16.706995      1.5052434      18.212238     -3.9101547    
    511000   1.010955       0.017221475    16.695073      1.5162808      18.211354     -3.9105998    
    512000   0.99824101     0.0012391915   16.712997      1.4972118      18.210209     -3.9008607    
    513000   1.0093865     -0.00094966922  16.695062      1.5139284      18.20899      -3.9002459    
    514000   1.0080211     -0.018763021    16.695909      1.5118805      18.207789     -3.9080296    
    515000   0.997747      -0.0081332601   16.710024      1.4964708      18.206495     -3.8970505    
    516000   0.9950677     -0.0042783053   16.71289       1.4924523      18.205343     -3.8880837    
    517000   1.0036836     -0.0091375891   16.698968      1.5053749      18.204343     -3.9061622    
    518000   0.99047774    -0.0097679118   16.717797      1.485568       18.203365     -3.8790163    
    519000   0.99939666    -0.0023670669   16.703554      1.4989451      18.202499     -3.9131406    
    520000   1.0033788      0.0040288337   16.696765      1.5049177      18.201682     -3.9059406    
    521000   0.99751103     0.0071108346   16.70471       1.4961169      18.200827     -3.9092524    
    522000   1.0083537      0.0025756845   16.687434      1.5123792      18.199813     -3.9153824    
    523000   1.00676        0.010086074    16.688734      1.509989       18.198723     -3.9081598    
    524000   0.99842328    -0.006508993    16.700142      1.4974852      18.197627     -3.9023761    
    525000   0.98446056     0.0042207178   16.720088      1.4765432      18.196631     -3.8891162    
    526000   0.9985973      0.0055378528   16.697885      1.4977462      18.195631     -3.9071538    
    527000   0.9928675      0.015024768    16.705448      1.4891523      18.1946       -3.8945892    
    528000   0.99941333     0.0035203908   16.694587      1.4989701      18.193557     -3.9034324    
    529000   0.99578259     0.010468064    16.699071      1.4935245      18.192596     -3.8968825    
    530000   1.0047601     -0.0081734423   16.684747      1.5069894      18.191736     -3.9173653    
    531000   0.99839508     0.00041325861  16.693377      1.4974429      18.19082      -3.9217329    
    532000   0.99373031     0.0047315657   16.699309      1.4904464      18.189755     -3.8994149    
    533000   0.98716341     0.0024124284   16.70814       1.480597       18.188737     -3.8952506    
    534000   0.98476204    -0.0023616179   16.710818      1.4769953      18.187813     -3.8877475    
    535000   0.98781252    -0.0051980729   16.70542       1.4815706      18.186991     -3.8971435    
    536000   0.99520406     0.0088605973   16.693503      1.4926568      18.18616      -3.9127785    
    537000   0.99463372     0.0045793671   16.69338       1.4918014      18.185181     -3.9143574    
    538000   0.99417252     0.0027782505   16.692901      1.4911097      18.18401      -3.9245823    
    539000   0.98960111     0.0068693459   16.698243      1.4842532      18.182496     -3.9048486    
    540000   0.98621551    -0.0015738856   16.701667      1.4791753      18.180842     -3.9000783    
    541000   0.99733682    -0.001044969    16.683334      1.4958556      18.17919      -3.9143616    
    542000   0.99277089    -0.0020628885   16.688506      1.4890074      18.177513     -3.9045942    
    543000   0.98866675     0.0040596135   16.692991      1.4828518      18.175842     -3.9114342    
    544000   0.99057981    -0.0038349895   16.68853       1.4857211      18.174251     -3.9070636    
    545000   0.99445054     0.0028178393   16.681314      1.4915266      18.172841     -3.9257407    
    546000   0.99132811    -0.0046305806   16.684789      1.4868435      18.171632     -3.9164078    
    547000   1.0016911      0.013773673    16.668267      1.5023864      18.170653     -3.9306268    
    548000   0.98226886     1.89302e-05    16.69664       1.4732559      18.169896     -3.9137306    
    549000   0.98950554     0.008196343    16.685356      1.4841099      18.169466     -3.9100715    
    550000   0.99211645     0.0036761914   16.681284      1.4880259      18.16931      -3.9203652    
    551000   0.99213703     0.014358322    16.681336      1.4880567      18.169392     -3.915536     
    552000   0.98916671     0.00034921777  16.686115      1.4836017      18.169717     -3.9185675    
    553000   0.99263292    -0.0016755011   16.681516      1.4888005      18.170316     -3.9268596    
    554000   0.98949772    -0.0099520371   16.687209      1.4840982      18.171307     -3.9120252    
    555000   0.99706083    -0.0045669381   16.677245      1.4954417      18.172687     -3.9210255    
    556000   0.99437765    -0.0078102026   16.682988      1.4914173      18.174405     -3.9268194    
    557000   0.99662446     0.01462946     16.681653      1.4947872      18.17644      -3.9081984    
    558000   0.99684768    -0.0066703568   16.683598      1.495122       18.17872      -3.9192454    
    559000   0.99678684     0.0092082226   16.686125      1.4950307      18.181156     -3.9128522    
    560000   0.99485961     0.00010148864  16.691611      1.4921402      18.183751     -3.906299     
    561000   0.99490591    -0.010835365    16.694236      1.4922096      18.186446     -3.9057247    
    562000   0.99564319    -0.0037243662   16.695945      1.4933154      18.189261     -3.9032944    
    563000   0.99652569    -0.018319957    16.697467      1.4946391      18.192107     -3.9090302    
    564000   0.99765565     0.013574231    16.69869       1.4963338      18.195023     -3.911015     
    565000   1.0002469     -0.01516888     16.697556      1.5002203      18.197777     -3.908266     
    566000   1.0023556      0.0064478356   16.696915      1.503383       18.200298     -3.9052844    
    567000   0.9917594     -0.0044037803   16.71514       1.4874903      18.202631     -3.9028672    
    568000   0.99482052     0.0051826236   16.712806      1.4920816      18.204888     -3.8916798    
    569000   1.0105313      0.0033778314   16.691372      1.5156454      18.207017     -3.9107792    
    570000   1.008026       0.0031266527   16.696807      1.5118878      18.208695     -3.9133104    
    571000   1.0037777      0.0089344818   16.70446       1.505516       18.209976     -3.9079878    
    572000   1.001994       0.0086586575   16.708119      1.5028408      18.21096      -3.8967315    
    573000   0.99687303     0.0011391225   16.716659      1.49516        18.211819     -3.8950087    
    574000   1.0008554     -0.0031753575   16.711518      1.501133       18.212651     -3.9051781    
    575000   1.0171237     -0.0034936538   16.687844      1.525533       18.213377     -3.9122387    
    576000   1.0036176     -0.0031841982   16.708638      1.5052758      18.213914     -3.9087095    
    577000   1.0082954     -0.014298568    16.701964      1.5122919      18.214256     -3.9031865    
    578000   0.98924927    -0.012864417    16.730802      1.4837255      18.214527     -3.8847574    
    579000   1.0057151      0.0037631187   16.706357      1.5084218      18.214779     -3.912532     
    580000   1.0045865     -0.010235278    16.70798       1.506729       18.214709     -3.8980145    
    581000   1.0006751      0.0050866785   16.713592      1.5008625      18.214454     -3.9039671    
    582000   1.0085686      0.0012573003   16.701414      1.5127016      18.214116     -3.9059488    
    583000   1.0143531     -0.01000819     16.692356      1.5213774      18.213733     -3.9130697    
    584000   1.0135923      0.00594833     16.692886      1.5202364      18.213122     -3.914066     
    585000   1.0179091     -0.0088742624   16.685445      1.5267109      18.212156     -3.9249607    
    586000   1.0056249     -0.0067015265   16.70258       1.5082865      18.210867     -3.903996     
    587000   1.0000022      0.010397564    16.709533      1.4998534      18.209386     -3.8963106    
    588000   1.0022704     -0.0056401827   16.704422      1.5032552      18.207677     -3.9028776    
    589000   1.003446      -0.0064870574   16.700692      1.5050185      18.205711     -3.8978195    
    590000   1.0021875     -0.020243766    16.700427      1.503131       18.203557     -3.9048186    
    591000   1.0066549     -0.00049167677  16.691362      1.5098313      18.201193     -3.9115934    
    592000   1.0037513      0.0039383804   16.692988      1.5054764      18.198465     -3.9169559    
    593000   0.99683588    -0.0039347214   16.700245      1.4951043      18.195349     -3.9128167    
    594000   0.98737795     0.00083993794  16.710943      1.4809188      18.191862     -3.9012401    
    595000   0.99802537    -0.0038558496   16.691393      1.4968884      18.188282     -3.8944424    
    596000   0.99268397    -0.0005651911   16.696023      1.488877       18.184901     -3.9093169    
    597000   1.0012147      0.0087599833   16.680028      1.5016719      18.1817       -3.9161289    
    598000   1.0010337      0.0034973266   16.677257      1.5014004      18.178657     -3.9125817    
    599000   0.98878233     0.0015298575   16.692911      1.4830252      18.175936     -3.910957     
    600000   0.98750207     0.00065453246  16.692605      1.481105       18.17371      -3.9107725    
    601000   0.99332184    -0.010268795    16.682098      1.4898338      18.171931     -3.9238827    
    602000   0.98333902     0.0057099791   16.695692      1.474861       18.170553     -3.9128717    
    603000   1.0057187     -0.01425825     16.661151      1.5084271      18.169578     -3.9347619    
    604000   0.99320185     0.0050597241   16.679339      1.4896538      18.168993     -3.9159692    
    605000   0.9948272     -0.010611469    16.676764      1.4920916      18.168856     -3.9338047    
    606000   0.97792041     0.0036913789   16.702256      1.4667339      18.16899      -3.915059     
    607000   0.99955626     0.0043002336   16.670075      1.4991845      18.169259     -3.9325476    
    608000   0.99373294     0.0028322041   16.679148      1.4904503      18.169598     -3.9226024    
    609000   0.98602581    -0.021802575    16.691218      1.4788908      18.170108     -3.9103849    
    610000   0.99152823     0.0069433279   16.683858      1.4871436      18.171002     -3.9111204    
    611000   1.0005791      6.5981759e-05  16.671365      1.5007186      18.172084     -3.9274786    
    612000   0.98932436     0.0156245      16.689313      1.4838381      18.173152     -3.9182141    
    613000   0.98696667    -0.020723353    16.693918      1.480302       18.17422      -3.9175179    
    614000   0.99387175    -0.0067459912   16.684798      1.4906585      18.175457     -3.9171133    
    615000   1.000108       0.021464669    16.676799      1.500012       18.176811     -3.925903     
    616000   1.008359      -0.012159311    16.665674      1.5123873      18.178061     -3.9456088    
    617000   0.98635739    -0.0030860798   16.699807      1.4793881      18.179195     -3.9025455    
    618000   0.98728659    -0.0041443097   16.699666      1.4807818      18.180448     -3.9043499    
    619000   1.0048006      0.0058983028   16.674869      1.5070502      18.181919     -3.9122748    
    620000   0.98584956     0.015847482    16.704757      1.4786265      18.183383     -3.9042146    
    621000   0.99811553    -0.00055141189  16.687788      1.4970236      18.184812     -3.9120454    
    622000   0.9953043     -0.011073216    16.69353       1.4928072      18.186338     -3.9185223    
    623000   0.99278836    -0.0024804337   16.698853      1.4890336      18.187886     -3.9124305    
    624000   0.99945614     0.0068676021   16.690354      1.4990343      18.189388     -3.9125278    
    625000   0.99319368    -0.0078431153   16.701134      1.4896415      18.190775     -3.9164136    
    626000   0.99613988     0.0081883951   16.698071      1.4940604      18.192131     -3.9043516    
    627000   0.99458937    -0.0023804195   16.701655      1.4917349      18.19339      -3.9096186    
    628000   0.99305646    -0.0088296176   16.705201      1.4894357      18.194637     -3.8981359    
    629000   1.0033743      0.0047871814   16.690953      1.504911       18.195864     -3.9072741    
    630000   0.99843651    -0.0024039542   16.699526      1.497505       18.197031     -3.9013445    
    631000   0.98974572     0.00065366188  16.713658      1.4844701      18.198128     -3.888226     
    632000   1.0043347     -0.0099224017   16.692909      1.5063514      18.19926      -3.919805     
    633000   0.99438272     0.011220158    16.708936      1.4914249      18.200361     -3.9008972    
    634000   1.0066334      0.015721854    16.691529      1.5097991      18.201328     -3.9218673    
    635000   1.0004699     -0.011691263    16.701591      1.5005547      18.202146     -3.9199159    
    636000   0.99643652    -0.0029294676   16.708315      1.4945053      18.20282      -3.9053061    
    637000   1.0085898      0.0055603532   16.690771      1.5127335      18.203505     -3.9198495    
    638000   1.0074807     -0.0060268725   16.692992      1.5110699      18.204062     -3.9075052    
    639000   1.0011815     -0.012500276    16.702916      1.5016221      18.204538     -3.9089951    
    640000   0.99541957     0.016067391    16.712101      1.49298        18.205081     -3.9025216    
    641000   1.0161183      0.0045945564   16.681621      1.524025       18.205646     -3.9304087    
    642000   1.0084227     -0.0003462464   16.693596      1.5124828      18.206079     -3.905604     
    643000   1.0026151      0.0047793625   16.702615      1.5037723      18.206387     -3.8936919    
    644000   1.0079707      0.00033022793  16.69493       1.5118048      18.206735     -3.9164516    
    645000   1.0010116      0.0062987367   16.705729      1.5013672      18.207096     -3.8977467    
    646000   1.0029645      0.0014412901   16.703155      1.5042963      18.207451     -3.9072615    
    647000   1.0000325     -0.0029540141   16.707947      1.4998987      18.207846     -3.9005184    
[...]
    818000   0.98285773     0.99617354     15.918025      1.4741392      17.392164     -4.6700773    
    819000   0.9772833      0.98697304     15.926585      1.4657784      17.392363     -4.6579918    
    820000   0.98614331     0.93000166     15.915135      1.479067       17.394202     -4.6671515    
    821000   0.99197427     0.95674702     15.906839      1.4878126      17.394652     -4.6828958    
    822000   0.99744414     1.0702706      15.902493      1.4960166      17.39851      -4.6841106    
    823000   0.99262793     1.0097053      15.911567      1.488793       17.40036      -4.6825666    
    824000   0.97872938     0.96361615     15.933044      1.4679473      17.400991     -4.6606572    
    825000   0.98494127     0.95663814     15.925578      1.4772642      17.402842     -4.6659371    
    826000   0.98312878     1.0742388      15.929578      1.4745457      17.404123     -4.6609399    
    827000   0.99408031     1.0727922      15.917019      1.4909713      17.40799      -4.6688523    
    828000   1.0028912      1.1923233      15.908351      1.5041864      17.412537     -4.6802072    
    829000   1.0088729      1.2634362      15.903799      1.513158       17.416957     -4.6918401    
    830000   1.0033969      0.89214362     15.911144      1.5049448      17.416088     -4.6762778    
    831000   0.99027075     1.0125022      15.933474      1.4852576      17.418731     -4.6676471    
    832000   0.99430231     0.9490095      15.926312      1.4913043      17.417616     -4.6608652    
    833000   0.99500339     0.93492117     15.925876      1.4923558      17.418232     -4.6594417    
    834000   0.99406808     1.0612494      15.929975      1.490953       17.420928     -4.6618988    
    835000   1.0030783      0.95574126     15.920434      1.504467       17.424901     -4.6705571    
    836000   0.99660441     0.84055181     15.928564      1.4947571      17.423321     -4.667658     
    837000   1.0047034      0.97575972     15.917708      1.5069045      17.424612     -4.6654672    
    838000   1.0030841      0.99201002     15.921825      1.5044757      17.426301     -4.6645748    
    839000   0.98920883     0.93028577     15.942513      1.4836649      17.426178     -4.6576798    
    840000   1.0069759      1.0960452      15.917559      1.5103127      17.427872     -4.6733927    
    841000   0.99837777     0.93731632     15.929128      1.4974169      17.426545     -4.6702218    
    842000   1.0081256      0.99086422     15.91513       1.5120372      17.427167     -4.6802615    
    843000   1.0043179      0.90828824     15.922571      1.5063262      17.428897     -4.6808534    
    844000   1.0046581      0.88685715     15.922404      1.5068365      17.42924      -4.6718027    
    845000   1.006278       1.2322516      15.921699      1.509266       17.430965     -4.6645318    
    846000   1.0018383      0.8934741      15.92583       1.5026071      17.428437     -4.6692633    
    847000   0.99768016     0.98000863     15.932684      1.4963706      17.429054     -4.659092     
    848000   0.99868087     0.86746718     15.929395      1.4978715      17.427266     -4.6668188    
    849000   0.99860207     1.2279413      15.930184      1.4977533      17.427937     -4.6513894    
    850000   0.99443533     1.147654       15.936473      1.4915038      17.427976     -4.6547009    
    851000   1.0009557      0.93370757     15.927446      1.5012835      17.428729     -4.6716546    
    852000   1.0034946      0.83429094     15.924224      1.5050914      17.429315     -4.6740516    
    853000   1.0038919      0.74302226     15.923229      1.5056872      17.428916     -4.6667306    
    854000   0.99519498     0.90795639     15.935882      1.4926432      17.428525     -4.656218     
    855000   1.0056191      1.0851704      15.923646      1.5082778      17.431924     -4.6654949    
    856000   0.9982808      0.84525685     15.931417      1.4972715      17.428688     -4.6564206    
    857000   0.99432972     0.94376256     15.93842       1.4913454      17.429765     -4.6486247    
    858000   1.0083576      1.1887169      15.919874      1.5123851      17.432259     -4.6571727    
    859000   0.99994426     0.96923167     15.930626      1.4997664      17.430392     -4.6565022    
    860000   1.0049611      0.76967326     15.92127       1.5072909      17.428561     -4.658563     
    861000   1.0078625      1.1111474      15.921334      1.5116426      17.432976     -4.6729197    
    862000   1.0089233      1.1493376      15.920718      1.5132336      17.433952     -4.6746291    
    863000   1.0051835      1.1916264      15.926049      1.5076245      17.433674     -4.6566008    
    864000   0.99703148     1.0452765      15.936794      1.4953977      17.432191     -4.6487795    
    865000   1.0086863      0.92234935     15.921484      1.5128781      17.434362     -4.6729286    
    866000   1.0059043      1.0561941      15.92304       1.5087056      17.431745     -4.6657136    
    867000   1.0085563      0.94903482     15.919968      1.5126832      17.432651     -4.6546837    
    868000   1.0058649      1.1252423      15.927853      1.5086465      17.436499     -4.6695329    
    869000   0.99899446     0.97143031     15.935958      1.4983418      17.4343       -4.6589364    
    870000   0.99693598     1.0211369      15.937668      1.4952544      17.432923     -4.6478496    
    871000   0.99919043     0.78153021     15.933274      1.4986358      17.431909     -4.6594198    
    872000   1.0014522      0.987162       15.932276      1.5020281      17.434304     -4.6562112    
    873000   0.99652134     0.98918558     15.939018      1.4946325      17.433651     -4.6610197    
    874000   1.0030789      0.89106887     15.930683      1.5044679      17.435151     -4.6722085    
    875000   1.0059181      0.91368875     15.927419      1.5087262      17.436145     -4.6607172    
    876000   0.99703699     1.0770439      15.941916      1.4954059      17.437322     -4.6547137    
    877000   1.0001255      0.99688282     15.937231      1.5000383      17.43727      -4.6594664    
    878000   0.99324816     0.99827196     15.94393       1.4897233      17.433654     -4.6485012    
    879000   0.99545482     0.86842598     15.942237      1.4930329      17.435269     -4.6580007    
    880000   1.0023987      1.0236617      15.933771      1.5034477      17.437218     -4.6675356    
    881000   1.0039321      0.95138577     15.92937       1.5057476      17.435117     -4.6554745    
    882000   0.99702498     0.91948248     15.937958      1.4953879      17.433346     -4.6546837    
    883000   0.99261452     0.8545285      15.945115      1.4887729      17.433887     -4.6554817    
    884000   0.98994431     1.0408162      15.950588      1.484768       17.435356     -4.6482068    
    885000   0.99141459     0.98632577     15.947755      1.4869732      17.434728     -4.6443088    
    886000   1.006745       1.1469754      15.926661      1.5099665      17.436627     -4.6670102    
    887000   1.0092149      1.0407631      15.923829      1.5136709      17.4375       -4.6673771    
    888000   1.00707        0.98573464     15.924728      1.510454       17.435182     -4.6592378    
    889000   1.0072772      0.94135289     15.924846      1.5107648      17.435611     -4.6685153    
    890000   1.0101745      1.0405928      15.918165      1.5151102      17.433275     -4.6709813    
    891000   0.99463846     0.96927752     15.937666      1.4918085      17.429474     -4.6554607    
    892000   1.0090044      0.74353808     15.916436      1.5133552      17.429792     -4.6725583    
    893000   0.99922393     0.81684677     15.928574      1.498686       17.42726      -4.6597132    
    894000   1.0042728      0.86708038     15.922181      1.5062586      17.42844      -4.6619903    
    895000   0.99745621     0.84137712     15.929569      1.4960347      17.425604     -4.6655523    
    896000   1.0021752      1.0317111      15.922819      1.5031124      17.425931     -4.6563382    
    897000   1.0031836      0.99270532     15.920374      1.504625       17.424999     -4.658911     
    898000   0.9997277      1.065522       15.924974      1.4994416      17.424416     -4.6675779    
    899000   0.9971979      0.98507429     15.926932      1.4956473      17.42258      -4.6645326    
    900000   1.0065128      0.9548837      15.912523      1.5096182      17.422141     -4.6771234    
    901000   0.9944856      1.0248166      15.927778      1.4915792      17.419357     -4.665516     
    902000   1.0090211      1.0055294      15.904564      1.5133804      17.417944     -4.6743307    
    903000   0.98522912     1.002643       15.935722      1.4776959      17.413418     -4.6515763    
    904000   0.99633985     1.0409415      15.919218      1.4943603      17.413578     -4.6622091    
    905000   0.9977257      1.1243529      15.919192      1.4964389      17.415631     -4.6714867    
    906000   0.99587395     1.1637308      15.920449      1.4936615      17.414111     -4.6715566    
    907000   1.0086271      1.1482517      15.901229      1.5127893      17.414019     -4.683461     
    908000   0.99144368     1.0540317      15.92211       1.4870168      17.409127     -4.6607358    
    909000   0.9883132      1.2148691      15.928726      1.4823215      17.411047     -4.6643775    
    910000   0.99869199     0.92933267     15.90902       1.4978882      17.406908     -4.6635728    
    911000   0.99292629     1.0413937      15.916102      1.4892405      17.405342     -4.6712964    
    912000   0.9892536      1.0255343      15.920617      1.483732       17.404349     -4.6597254    
    913000   0.98304206     0.96519187     15.928424      1.4744156      17.402839     -4.6569901    
    914000   0.9910463      1.0560737      15.918404      1.4864208      17.404825     -4.6668784    
    915000   1.0016528      1.0800812      15.90548       1.5023289      17.407809     -4.6782997    
    916000   0.99817871     1.0965494      15.908766      1.4971183      17.405885     -4.6711897    
    917000   0.98531393     0.92553467     15.926232      1.4778231      17.404055     -4.6723639    
    918000   0.98955264     1.0540811      15.920263      1.4841805      17.404444     -4.6634909    
    919000   0.99862579     0.90126438     15.907395      1.4977889      17.405184     -4.6719778    
    920000   1.0048212      0.98149024     15.900489      1.5070811      17.407571     -4.684202     
    921000   0.99517346     0.98917326     15.914585      1.4926109      17.407196     -4.6643404    
    922000   0.98951911     0.95414542     15.923147      1.4841302      17.407277     -4.6580237    
    923000   0.9996066      0.94758259     15.909862      1.49926        17.409122     -4.6684984    
    924000   1.0033439      0.80185281     15.907242      1.5048654      17.412108     -4.6803049    
    925000   0.99907048     0.89683885     15.916387      1.4984559      17.414843     -4.6677032    
    926000   0.98082488     0.91890509     15.942764      1.4710902      17.413854     -4.6499825    
    927000   0.984803       0.89972292     15.941811      1.4770568      17.418868     -4.6513988    
    928000   0.9901984      0.90762005     15.937502      1.4851491      17.422651     -4.6523801    
    929000   1.0019625      0.86652818     15.925194      1.5027935      17.427987     -4.6571301    
    930000   0.99865968     1.080438       15.933664      1.4978397      17.431504     -4.6607254    
    931000   1.0072218      0.94264496     15.923273      1.5106816      17.433955     -4.6579595    
    932000   0.99425414     1.0481726      15.946055      1.4912321      17.437287     -4.6463278    
    933000   1.0044037      0.93199667     15.933406      1.5064549      17.439861     -4.6493894    
    934000   0.99980961     1.0161136      15.939446      1.4995644      17.43901      -4.6406113    
    935000   1.0033843      0.87184223     15.938655      1.5049259      17.443581     -4.6553278    
    936000   1.0016616      1.0412156      15.941121      1.5023422      17.443463     -4.6470257    
    937000   0.99612963     0.82573655     15.951722      1.494045       17.445767     -4.6501969    
    938000   1.0064619      1.2413264      15.941435      1.5095419      17.450977     -4.6587       
    939000   1.0044023      1.0189729      15.941729      1.5064527      17.448181     -4.648844     
    940000   1.0162956      0.86335414     15.925623      1.5242909      17.449914     -4.663581     
    941000   0.99221417     1.1957423      15.962346      1.4881724      17.450518     -4.6377387    
    942000   1.0069046      1.011243       15.940355      1.5102059      17.450561     -4.6527088    
    943000   1.0063787      1.0407784      15.940731      1.5094171      17.450148     -4.6461976    
    944000   1.0018123      0.93584056     15.948085      1.5025681      17.450654     -4.6487378    
    945000   1.0116422      0.83205453     15.933163      1.5173116      17.450474     -4.6547581    
    946000   1.0046739      1.1093757      15.944647      1.5068602      17.451507     -4.6537851    
    947000   1.0095175      0.69988714     15.936063      1.5141249      17.450187     -4.6575752    
    948000   1.0055943      1.0444472      15.941965      1.5082405      17.450205     -4.6522916    
    949000   0.99793047     1.0807437      15.951757      1.496746       17.448503     -4.6478075    
    950000   1.006263       1.2703223      15.944335      1.5092436      17.453579     -4.6573479    
    951000   1.0105877      1.0228382      15.934776      1.5157299      17.450506     -4.6510509    
    952000   1.0229349      0.90434193     15.915347      1.5342489      17.449595     -4.6812452    
    953000   1.005356       1.0568901      15.939945      1.5078832      17.447828     -4.6517886    
    954000   1.0138193      0.97752558     15.92503       1.5205769      17.445607     -4.6648154    
    955000   0.9940504      1.0826653      15.952765      1.4909265      17.443692     -4.645988     
    956000   0.99757877     0.90882811     15.946233      1.4962185      17.442451     -4.6455486    
    957000   1.0027948      0.99036805     15.936524      1.5040418      17.440565     -4.6530754    
    958000   1.007323       1.167008       15.928059      1.5108334      17.438892     -4.6611       
    959000   1.0039467      1.040076       15.929752      1.5057694      17.435522     -4.6601758    
    960000   1.0116104      0.97376887     15.915762      1.5172638      17.433026     -4.6652145    
    961000   0.99922129     0.98422447     15.929241      1.4986821      17.427923     -4.6561744    
    962000   0.99491198     1.0734374      15.935828      1.4922187      17.428047     -4.6637547    
    963000   1.0023129      0.945478       15.922667      1.503319       17.425986     -4.6792924    
    964000   0.9982471      1.1222975      15.92551       1.4972209      17.42273      -4.6633148    
    965000   0.99346407     0.99704478     15.930586      1.4900471      17.420633     -4.6693634    
    966000   1.0034496      0.9004507      15.912587      1.5050238      17.417611     -4.679314     
    967000   0.99229718     0.98764112     15.926054      1.4882969      17.414351     -4.6680937    
    968000   1.0060168      0.87800502     15.902864      1.5088742      17.411738     -4.6728117    
    969000   0.99488939     1.0209153      15.918916      1.4921848      17.411101     -4.6574539    
    970000   0.99214798     0.86604599     15.921574      1.4880732      17.409647     -4.6686469    
    971000   0.98855686     0.76558994     15.923691      1.482687       17.406378     -4.6524775    
    972000   0.98165149     0.948393       15.936024      1.47233        17.408354     -4.6594891    
    973000   0.98858203     1.1387181      15.927656      1.4827248      17.410381     -4.6617094    
    974000   0.98397235     0.84050014     15.932497      1.4758109      17.408308     -4.6604921    
    975000   0.98572994     0.88669395     15.929341      1.478447       17.407788     -4.6599707    
    976000   0.99427585     0.96817193     15.917549      1.4912646      17.408814     -4.6716311    
    977000   1.0014611      0.79687878     15.910261      1.5020415      17.412302     -4.6745893    
    978000   0.99375599     0.88840713     15.921404      1.4904849      17.411889     -4.6657747    
    979000   0.98623198     1.1004064      15.93089       1.4792         17.41009      -4.6538583    
    980000   0.99677477     1.1028813      15.920207      1.4950126      17.41522      -4.6753599    
    981000   1.0014576      0.92269792     15.913686      1.5020362      17.415722     -4.6775222    
    982000   1.0044708      1.2686524      15.909955      1.5065556      17.416511     -4.6796398    
    983000   1.001814       0.96186401     15.913165      1.5025708      17.415735     -4.669455     
    984000   1.007755       0.91332137     15.905446      1.5114814      17.416928     -4.6747459    
    985000   1.002118       1.0351386      15.917323      1.5030266      17.420349     -4.6725841    
    986000   0.9985895      0.86744587     15.921632      1.4977345      17.419367     -4.6748139    
    987000   1.0037003      1.0431378      15.913562      1.5053999      17.418961     -4.6623894    
    988000   1.0006258      0.84358446     15.916875      1.5007886      17.417664     -4.6611881    
    989000   0.99022616     1.0095218      15.935508      1.4851907      17.420699     -4.6625559    
    990000   0.98067282     1.1119702      15.950841      1.4708621      17.421703     -4.6518814    
    991000   0.99238011     1.0210846      15.935476      1.4884213      17.423897     -4.6582907    
    992000   0.99651046     1.0448159      15.92892       1.4946162      17.423536     -4.6517381    
    993000   1.0003755      0.98648183     15.926048      1.5004132      17.426461     -4.6609744    
    994000   1.0047534      1.120012       15.921383      1.5069793      17.428363     -4.6623915    
    995000   0.99848492     0.96953858     15.933069      1.4975776      17.430647     -4.6640236    
    996000   0.98884301     1.076843       15.945973      1.4831162      17.429089     -4.6484307    
    997000   0.99424515     1.1152114      15.941632      1.4912186      17.432851     -4.6570227    
    998000   1.0102605      0.89773967     15.916024      1.5152391      17.431263     -4.6583508    
    999000   0.98202796     0.81653448     15.958676      1.4728946      17.43157      -4.6387214    
   1000000   1.0131634      0.87194202     15.914714      1.5195932      17.434307     -4.665244     
Loop time of 9776.08 on 1 procs for 1000000 steps with 10000 atoms

Performance: 8837.902 tau/day, 102.291 timesteps/s, 1.023 Matom-step/s
99.7% CPU use with 1 MPI tasks x 1 OpenMP threads

MPI task timing breakdown:
Section |  min time  |  avg time  |  max time  |%varavg| %total
---------------------------------------------------------------
Pair    | 8785.8     | 8785.8     | 8785.8     |   0.0 | 89.87
Bond    | 226.1      | 226.1      | 226.1      |   0.0 |  2.31
Neigh   | 429.63     | 429.63     | 429.63     |   0.0 |  4.39
Comm    | 55.895     | 55.895     | 55.895     |   0.0 |  0.57
Output  | 0.093575   | 0.093575   | 0.093575   |   0.0 |  0.00
Modify  | 239.72     | 239.72     | 239.72     |   0.0 |  2.45
Other   |            | 38.79      |            |       |  0.40

Nlocal:          10000 ave       10000 max       10000 min
Histogram: 1 0 0 0 0 0 0 0 0 0
Nghost:          12881 ave       12881 max       12881 min
Histogram: 1 0 0 0 0 0 0 0 0 0
Neighs:         822994 ave      822994 max      822994 min
Histogram: 1 0 0 0 0 0 0 0 0 0

Total # of neighbors = 822994
Ave neighs/atom = 82.2994
Ave special neighs/atom = 5.88
Neighbor list builds = 17420
Dangerous builds = 0
System init for write_restart ...
Generated 0 of 0 mixed pair_coeff terms from geometric mixing rule
Total wall time: 5:17:11
