10000
 Atoms. Timestep: 0
1 28.2096 1.64105 37.129
1 27.3354 1.43876 36.7825
1 28.0026 1.09932 36.1831
1 27.8566 0.884898 35.2604
1 27.9618 0.0573945 35.7356
1 28.6375 0.236037 36.3923
1 28.2139 49.6758 37.0462
1 27.9157 0.577832 37.1765
1 27.2528 0.330202 36.5291
1 26.848 0.0749471 35.6968
1 26.2197 49.8087 36.373
1 25.383 0.281789 36.3526
1 25.2112 0.864196 35.6079
1 24.9521 49.9781 35.3512
1 24.3222 0.323392 35.9921
1 24.0027 49.5231 35.5735
1 23.8298 49.782 34.6672
1 23.3965 0.388121 35.2737
1 24.2411 0.741888 34.9929
1 24.8885 1.39349 34.7148
1 25.1195 0.519258 34.3919
1 24.2799 0.499655 33.926
1 23.9747 1.3901 34.1135
1 23.8712 1.76903 34.9907
1 24.288 1.45928 35.7991
1 23.4922 1.04887 36.1434
1 23.3911 1.66882 36.87
1 22.85 1.44277 37.6315
1 23.3132 1.42423 38.472
1 22.645 0.734256 38.4738
1 22.5817 1.25601 39.2777
1 22.9882 0.411227 39.487
1 23.682 1.07388 39.4824
1 24.3124 1.08855 38.7583
1 23.6781 0.38057 38.6165
1 24.5634 0.0394608 38.4773
1 24.4295 0.204303 39.4157
1 25.2412 0.643269 39.1476
1 25.405 49.6978 39.1164
1 25.639 0.0700461 38.2614
1 25.1253 0.06058 37.448
1 25.8779 49.473 37.3559
1 25.279 49.2338 36.6442
1 25.5251 48.4396 37.1236
1 26.4515 48.5363 37.3571
1 27.0017 48.6282 36.5759
1 26.2509 48.0627 36.3732
1 25.4131 48.3375 35.9934
1 25.232 47.5546 36.5193
1 24.4677 47.5524 35.9369
1 23.5357 47.7189 36.0911
1 23.6739 46.8081 36.3526
1 23.2924 47.3056 37.0815
1 24.2065 47.589 37.0059
1 24.5272 48.4122 36.6334
1 23.7103 48.7624 36.2811
1 23.6212 48.517 35.357
1 22.9499 49.1673 35.5769
1 22.1274 49.2766 36.06
1 22.7857 49.086 36.7325
1 22.6238 48.2952 36.2134
1 22.619 48.0472 35.288
1 21.8312 47.7023 34.857
1 21.6247 47.8716 35.7794
1 20.9652 48.2974 35.2255
1 20.7778 47.3577 35.1394
1 20.0196 46.8423 34.8499
1 20.5757 46.0829 35.0353
1 20.8267 45.7811 35.9111
1 20.5221 45.094 36.5102
1 20.3069 45.379 37.4048
1 19.756 46.163 37.5198
1 20.3068 46.2415 36.7399
1 19.6011 45.6035 36.6074
1 18.8876 45.7084 35.9723
1 18.6498 45.0877 36.6613
1 18.6908 45.9757 37.0326
1 19.236 46.6017 36.5449
1 19.7834 46.3237 35.8007
1 19.87 45.394 35.571
1 19.5166 44.6643 36.0849
1 19.6039 44.5953 37.038
1 19.237 45.2291 37.6575
1 18.7622 44.9029 38.4292
1 17.9187 44.4467 38.3423
1 17.4508 44.3979 37.5031
1 17.8979 43.8842 36.8256
1 18.1497 43.5557 37.6942
1 18.6025 44.3737 37.4816
1 18.1511 45.215 37.5951
1 17.3327 45.3629 38.0684
1 16.5039 45.7926 38.2896
1 16.6354 45.8419 37.3398
1 17.5647 46.0089 37.1656
1 17.0766 46.83 37.0645
1 17.7458 46.925 37.747
1 18.1943 46.932 36.8981
1 17.7266 46.4818 36.1922
1 16.8667 46.0641 36.286
1 15.9296 46.2576 36.2065
1 0.111179 47.2424 22.5608
1 49.4015 47.3399 21.9219
1 49.667 46.4191 21.9275
1 48.7339 46.2119 22.0014
1 48.6659 46.8475 21.2827
1 47.874 46.5887 20.8042
1 48.6161 46.5199 20.1974
1 48.3464 47.4366 20.2946
1 49.3011 47.3825 20.3759
1 49.0964 47.4879 19.4424
1 49.9457 47.2749 19.0448
1 0.599833 47.9783 19.0598
1 49.9619 48.1176 19.7667
1 49.5987 48.3348 18.9052
1 49.2118 48.6827 18.1028
1 49.7067 48.7454 17.2859
1 48.8098 48.4529 17.12
1 48.5353 49.3208 17.4322
1 48.5726 0.285488 17.4082
1 49.4268 0.709674 17.5427
1 49.6544 1.4195 16.9361
1 48.6895 1.40606 16.958
1 48.1283 0.772788 16.4975
1 47.8924 0.948238 15.5846
1 48.0175 1.76848 16.0701
1 47.309 2.0731 15.4996
1 47.0012 1.32904 14.9795
1 47.7743 1.04131 14.4975
1 48.2112 1.76273 14.9616
1 48.9305 1.48552 15.5452
1 49.6837 1.4486 14.9442
1 49.6015 1.21535 14.011
1 48.9853 1.91971 14.2244
1 48.118 1.86369 13.8159
1 48.8135 1.61363 13.1944
1 48.5309 0.884608 13.7434
1 48.8057 0.929705 14.6535
1 48.401 0.0813761 14.4962
1 49.2577 0.137737 14.0572
1 49.3402 0.500075 13.1701
1 48.5195 0.630788 12.6872
1 47.8047 1.20396 12.971
1 47.1295 1.0987 13.643
1 47.6516 0.291377 13.6351
1 48.4491 49.8022 13.4186
1 48.7843 49.155 14.0473
1 48.3425 49.0553 14.8958
1 49.1763 49.4958 15.0617
1 49.6319 0.340265 15.036
1 48.8141 0.37513 15.5424
1 48.5321 49.762 16.2245
1 49.1126 49.0007 16.2204
1 49.26 48.0552 16.1921
1 0.106726 48.5061 16.289
1 49.7393 48.6046 15.4045
1 0.22932 49.4217 15.3358
1 49.6891 49.8675 15.9963
1 0.147442 0.360995 16.732
1 0.945798 0.880428 16.6144
1 1.74024 0.843779 17.1513
1 1.99586 0.126235 17.7367
1 1.35136 49.451 17.9633
1 0.56799 49.7741 18.4218
1 0.352358 48.856 18.2582
1 1.09994 48.9264 18.8629
1 0.290585 49.087 19.346
1 49.5717 49.4452 18.8233
1 49.5748 49.6876 17.8966
1 49.3642 49.7484 16.9659
1 49.1689 0.582778 16.5066
1 49.8581 0.916711 15.9098
1 0.604924 0.297771 15.7927
1 0.556758 49.5043 16.366
1 0.468692 49.4709 17.3197
1 0.85188 0.323033 17.5421
1 1.3908 49.8253 16.922
1 2.12603 49.3891 16.4951
1 2.39282 49.5633 15.5814
1 3.127 49.3884 16.1599
1 2.62143 48.5824 16.0121
1 3.16012 48.7174 15.2334
1 3.43791 49.631 15.1459
1 3.1578 0.37751 15.6794
1 3.59439 0.303198 16.5328
1 4.17645 49.555 16.3884
1 4.56578 48.807 16.8464
1 4.96264 47.9538 16.6536
1 5.54081 47.4966 17.2741
1 4.69641 47.7162 17.6695
1 5.26698 48.4933 17.5773
1 5.14884 48.1915 18.4737
1 6.03187 47.9943 18.1528
1 5.93727 48.9048 18.4539
1 5.71795 49.5372 19.144
1 4.95419 49.3908 18.5717
1 4.9827 48.7827 19.3127
1 5.09259 49.3188 20.0946
1 5.5407 48.4699 20.1902
1 5.69212 49.0124 20.968
1 6.17414 49.3894 20.2253
1 3.29047 6.36196 44.8442
1 3.94339 5.77275 44.461
1 3.19555 5.24847 44.752
1 2.63253 4.47306 44.6765
1 3.507 4.25338 44.3456
1 3.02602 3.88274 43.6012
1 2.90063 3.02851 43.181
1 3.15092 3.65925 42.503
1 2.35417 4.18174 42.3797
1 2.49253 3.61551 41.6179
1 2.49478 4.40664 41.0775
1 1.71132 4.89062 41.335
1 2.20685 5.67298 41.0931
1 1.76859 6.46387 41.4161
1 1.10097 5.81724 41.1734
1 1.49537 6.192 40.3813
1 1.41532 5.23783 40.2928
1 1.10247 4.84819 39.4741
1 1.74613 4.22982 39.8293
1 1.5303 3.37026 39.4582
1 0.737671 3.8308 39.1788
1 1.4585 4.18595 38.6586
1 2.32424 3.83582 38.8745
1 2.87765 4.48808 38.436
1 2.98759 5.39909 38.7257
1 3.2409 5.56607 39.6347
1 2.98193 6.02192 40.4385
1 2.82379 6.59999 39.6887
1 2.33835 7.34974 40.0402
1 2.34695 7.37374 39.0775
1 1.72473 6.72017 39.4022
1 2.26549 6.26831 38.7455
1 1.48961 5.75695 38.993
1 2.16146 5.75693 39.6805
1 2.47032 5.04426 40.2344
1 2.87436 4.51748 39.5463
1 2.12204 4.89393 39.0914
1 2.03376 5.20734 38.1919
1 2.46465 4.76789 37.4555
1 2.113 3.94726 37.8089
1 1.37419 4.52997 37.6193
1 1.02855 3.64912 37.7887
1 1.54796 3.09826 38.3773
1 0.961574 2.35537 38.5529
1 0.481599 1.65335 38.099
1 0.886409 1.35943 37.2781
1 1.33954 2.16187 37.5513
1 1.55833 1.44894 38.1584
1 1.04926 0.634495 38.1143
1 0.1721 0.62117 37.7254
1 49.7799 1.37188 37.271
1 49.1445 1.02746 37.903
1 49.2175 0.403246 37.1762
1 48.9449 49.4971 37.3439
1 48.4937 48.6592 37.4822
1 48.6086 47.8042 37.061
1 48.5024 46.8609 36.9127
1 48.1446 47.0829 37.776
1 47.6797 47.9193 37.6935
1 47.5677 47.4525 36.8622
1 46.8499 48.0884 36.8756
1 47.0453 48.3109 35.9602
1 47.1957 48.8366 35.1667
1 48.0066 48.8331 34.6506
1 47.4282 49.389 34.1228
1 48.125 49.9348 34.4968
1 48.4929 49.4148 33.7765
1 48.0371 0.189232 33.4365
1 48.897 0.444649 33.7855
1 49.0083 0.0979534 32.895
1 48.5942 0.963406 32.8815
1 48.7237 1.58201 33.6005
1 48.7889 2.36067 33.0456
1 48.5451 1.85932 32.2664
1 47.8572 1.76554 32.9312
1 46.9208 1.58053 32.8327
1 46.3196 2.24512 32.4863
1 45.985 2.99369 31.9879
1 46.6665 2.53269 31.4881
1 47.3945 2.19777 32.0191
1 47.9774 2.79225 32.4986
1 47.1771 2.63048 32.9987
1 47.0046 3.22593 32.2671
1 46.5933 3.55663 33.0681
1 46.5239 3.8397 33.9845
1 46.993 4.55818 34.416
1 47.3609 3.7411 34.7584
1 47.9292 4.05237 34.0481
1 47.4262 3.28877 33.7694
1 47.9774 2.50131 33.7362
1 48.1745 3.03216 34.5098
1 47.313 2.62382 34.6269
1 47.8771 1.84699 34.586
1 48.7914 2.13073 34.5326
1 49.1196 2.82466 33.9594
1 48.9719 3.73472 34.2259
1 49.2989 3.7783 33.3235
1 48.4297 3.37669 33.32
1 47.7044 3.80479 32.8654
1 47.1843 4.45518 33.3384
1 3.71976 21.2092 18.475
1 3.34315 20.5283 19.0391
1 3.35285 21.3383 19.5543
1 2.96456 21.9195 18.8971
1 3.84933 22.262 18.7519
1 3.24046 22.7518 18.1939
1 3.15522 21.8855 17.7923
1 4.06973 22.1527 17.6736
1 3.89214 23.0401 17.3513
1 3.39699 22.4133 16.8228
1 3.64599 21.489 16.9
1 4.23995 21.93 16.2898
1 3.82864 22.6706 15.8379
1 4.68782 22.493 15.4469
1 4.05139 22.5951 14.7346
1 3.87739 21.7724 15.202
1 3.22547 21.7232 15.905
1 2.57222 21.7662 16.609
1 2.83746 20.8474 16.5355
1 2.34715 21.0759 15.7428
1 2.16645 22.0087 15.6072
1 2.73706 22.6949 15.9598
1 3.01813 22.4707 15.0683
1 2.8437 21.5478 14.8676
1 3.40451 21.9008 14.175
1 3.47312 21.889 13.2182
1 2.55932 22.1062 13.4231
1 2.97487 22.7748 12.8761
1 3.22345 22.9275 13.7923
1 3.3397 23.7022 13.2324
1 2.39678 23.5836 13.3846
1 2.57374 24.456 13.0207
1 1.74448 24.3001 12.563
1 2.13942 25.1244 12.2684
1 3.01675 25.4937 12.408
1 3.73968 25.2262 11.8302
1 4.05628 24.981 10.9625
1 3.55614 25.0094 10.1478
1 4.49629 24.9226 9.97118
1 4.54591 25.7786 10.4026
1 4.07969 26.5356 10.0553
1 3.39399 26.7515 9.42213
1 2.48823 26.7605 9.73049
1 1.98082 27.0693 10.4786
1 2.31737 26.263 10.8708
1 2.20423 26.083 11.8074
1 2.8056 25.4779 11.3695
1 3.05246 24.6201 11.0462
1 2.94672 24.4886 11.9908
1 3.61613 24.5864 12.6704
1 4.30128 23.9507 12.4597
1 3.84972 24.1191 11.6284
1 3.41613 23.4312 12.1281
1 2.49394 23.5772 12.3212
1 1.9376 22.8333 12.5505
1 1.8103 23.0973 11.6333
1 1.86614 22.1393 11.6888
1 2.60822 21.9672 12.2749
1 2.83469 22.6567 11.6459
1 2.86048 22.7817 10.6921
1 3.63986 23.2224 11.0402
1 3.8531 24.0082 10.5319
1 4.69924 24.1179 10.9778
1 4.74505 24.6895 11.7554
1 4.74054 25.6131 11.4885
1 5.21272 25.0738 10.8461
1 5.52026 25.3591 9.98186
1 4.92999 25.8352 9.39167
1 5.52373 25.2946 8.86371
1 6.40334 25.3539 9.24324
1 6.41973 24.6235 8.61725
1 6.51554 23.6834 8.42902
1 6.61972 22.7798 8.11171
1 7.2018 22.1233 7.72333
1 6.47403 21.6472 8.11936
1 7.26879 21.6044 8.65853
1 7.98499 22.2166 8.46162
1 7.98464 22.8635 7.75021
1 8.4948 22.5885 6.98462
1 8.18004 21.7934 7.41962
1 8.13658 21.1648 8.1418
1 8.58019 20.7083 7.42427
1 7.84033 20.1645 7.70695
1 7.16478 20.8446 7.78193
1 7.62934 20.9771 6.95285
1 6.80603 21.4657 6.96067
1 6.29207 22.2501 7.16268
1 5.77511 21.4518 7.30368
1 5.30096 22.0274 6.70135
1 4.86617 22.8387 6.42928
1 5.56567 23.0617 7.04933
1 5.97376 22.7824 6.22459
1 6.70397 22.1684 6.13053
1 7.45171 22.3409 6.70793
1 7.58941 22.7846 5.86716
1 6.88288 22.7792 5.21426
1 7.07241 23.0421 4.30899
1 6.12249 23.1342 4.41901
1 6.35136 22.2018 4.40889
1 5.76494 21.824 3.74882
1 9.00413 35.4037 35.4783
1 9.26252 36.2898 35.7388
1 9.43906 37.1 35.2613
1 10.0416 37.2242 34.5269
1 9.55643 38.0351 34.7031
1 8.68268 38.0417 34.3048
1 8.62223 38.0027 33.3485
1 9.32876 38.3044 32.7637
1 8.71516 37.7315 32.3018
1 8.33111 38.6004 32.4726
1 8.70553 39.0853 33.2174
1 9.38412 38.6858 33.7746
1 9.62426 37.7594 33.6603
1 9.77887 37.326 32.817
1 8.9528 36.9845 33.1619
1 9.68374 36.6366 33.682
1 9.01372 37.0209 34.2516
1 8.70306 36.1802 33.9062
1 8.58285 36.219 34.8589
1 9.51324 36.0976 34.6603
1 10.2511 36.352 35.2109
1 10.6181 37.2016 35.4595
1 11.122 37.2285 34.6418
1 11.3145 36.3445 34.9601
1 10.9541 35.5153 35.2784
1 10.6666 34.8142 35.8651
1 10.0277 35.5245 35.9144
1 9.96253 35.1326 35.0394
1 10.6869 34.7462 34.5414
1 11.3702 34.4456 35.1453
1 11.8148 35.0432 35.7507
1 12.2914 34.483 36.3695
1 12.8124 34.9089 37.0581
1 12.281 35.5628 36.5975
1 11.8311 35.3056 37.406
1 11.336 34.856 36.7196
1 10.6918 35.2929 37.2795
1 10.2835 34.5292 36.8645
1 10.1273 33.8933 36.1624
1 10.2063 34.0456 35.2191
1 10.8426 33.6258 34.6358
1 10.1747 32.9794 34.8773
1 10.2022 33.0542 33.9195
1 9.8337 33.3192 33.0726
1 9.36248 34.0803 32.7221
1 8.87197 33.2842 32.5006
1 9.66998 33.333 31.9692
1 9.73098 34.2442 31.6688
1 9.13884 33.7322 31.1122
1 8.65719 34.1328 31.8389
1 8.8193 34.7938 31.1613
1 7.88379 34.581 31.2058
1 8.2806 34.0476 30.5163
1 9.12866 34.0476 30.0641
1 8.50928 33.4795 29.5981
1 8.25672 34.3947 29.4579
1 8.62077 35.0107 30.097
1 7.94426 35.6893 30.0822
1 7.54186 34.8258 30.1942
1 7.39032 35.0774 29.2805
1 8.26309 35.41 29.0575
1 8.95336 35.8742 29.5342
1 9.48811 36.3502 30.1728
1 8.56325 36.6002 30.2604
1 8.7643 35.8356 30.8047
1 8.00021 35.6469 31.3517
1 7.46004 35.7887 32.1364
1 6.78682 36.141 32.7288
1 6.051 36.6192 33.1242
1 6.15389 37.2826 33.8107
1 5.67922 38.0752 33.546
1 5.49953 37.8623 34.4641
1 5.19425 38.5301 35.0813
1 5.95502 38.0602 35.434
1 5.19288 37.4734 35.4421
1 4.92981 36.9305 34.6946
1 4.02697 36.8711 34.369
1 3.57067 37.5723 33.9011
1 3.97891 38.4353 33.7965
1 4.88508 38.6553 34.0322
1 5.65787 39.1785 33.8004
1 5.41963 39.5957 32.9695
1 5.38447 40.5051 32.6602
1 5.34103 39.9228 31.8988
1 4.51327 39.8664 32.3832
1 4.49441 40.3096 33.2356
1 4.42887 39.3633 33.3724
1 4.82408 39.7746 34.1454
1 5.50086 40.3366 33.7541
1 6.35697 40.1171 34.126
1 6.52324 40.9933 33.7692
1 7.2731 41.586 33.8715
1 7.40358 41.1301 33.0372
1 8.06977 40.4376 33.0305
1 8.25251 41.0521 33.7457
1 7.49867 40.5081 33.9903
1 7.0165 40.1204 33.2578
1 7.22898 40.2585 32.3319
1 6.32181 39.9571 32.4325
1 6.39421 40.8782 32.6949
1 24.5632 26.1232 11.2456
1 23.8273 26.7263 11.3774
1 23.0972 26.1549 11.1233
1 22.8048 25.347 11.5569
1 23.0495 25.1119 10.6577
1 23.8204 25.3545 11.1704
1 23.7376 25.8344 12
1 23.6612 24.904 12.2194
1 24.5524 25.1239 11.9328
1 24.1846 24.3875 11.4272
1 24.5332 24.0933 12.269
1 25.2684 24.3607 11.7084
1 25.46 23.4967 12.0778
1 25.2641 22.7548 11.4965
1 24.7908 23.5293 11.1883
1 24.112 22.8632 11.3
1 24.4541 23.0186 12.1839
1 23.4958 23.0279 12.202
1 23.8272 22.1257 12.1218
1 22.9191 22.1232 12.4175
1 22.4763 21.2775 12.4775
1 22.9906 21.3732 11.6688
1 22.1898 21.899 11.5853
1 21.8494 22.222 12.4232
1 21.4607 22.3997 13.2803
1 22.1935 22.0132 13.7563
1 21.7017 22.2193 14.5499
1 22.3642 22.4691 15.1974
1 21.5036 22.6646 15.5721
1 21.4882 23.2415 14.8061
1 20.9585 22.9206 14.0729
1 20.7199 21.9937 14.1669
1 20.6081 22.4707 14.9936
1 21.0509 21.653 15.2276
1 21.4638 20.825 15.4897
1 22.1269 21.4138 15.1265
1 21.8423 21.7329 15.9897
1 22.3575 21.6014 16.7916
1 23.2188 21.1727 16.7463
1 23.5969 20.8063 15.9405
1 22.9736 20.7316 15.2136
1 22.463 20.8266 16.0179
1 22.8973 21.6657 15.8348
1 23.8223 21.8412 15.6689
1 23.2909 21.9625 14.8749
1 22.8584 21.3348 14.2954
1 23.0656 21.5374 13.3778
1 23.8722 21.266 12.9407
1 24.3066 20.4723 13.2729
1 23.6173 20.6552 13.9108
1 23.9141 21.5554 14.0419
1 23.9144 21.0787 14.8748
1 24.528 20.5235 15.3605
1 24.8362 21.4331 15.3367
1 24.4134 22.1129 14.8072
1 25.2347 21.9531 14.3419
1 24.6126 22.3051 13.6975
1 24.8361 21.4006 13.4684
1 24.8124 20.9489 14.3141
1 24.4445 20.0655 14.3421
1 24.7147 19.4679 15.0435
1 25.2435 19.7023 15.8094
1 24.5525 19.0969 16.0947
1 24.2733 18.2077 16.3337
1 23.9389 17.8201 17.1464
1 23.4451 17.2619 17.7535
1 22.6067 17.5494 18.1286
1 21.8829 17.8253 17.5596
1 21.8499 16.8664 17.623
1 22.6549 16.4807 17.9762
1 23.3927 16.1857 17.439
1 22.6133 16.3267 16.8971
1 22.6567 17.2748 17.0314
1 22.914 18.1636 17.2923
1 22.3337 18.1776 16.5279
1 23.2176 17.8956 16.2748
1 23.8121 17.3905 15.7129
1 23.6764 16.437 15.7137
1 22.8871 16.8914 16.0163
1 23.5931 16.9205 16.6692
1 24.1998 16.1789 16.649
1 24.6472 15.8165 15.881
1 24.7099 16.7749 15.8496
1 25.5955 16.4081 15.8877
1 26.3952 16.079 15.4733
1 26.3637 15.6525 16.3308
1 25.6244 15.3079 15.8257
1 26.4274 14.9695 15.4246
1 26.0956 15.437 14.6536
1 25.2865 15.8633 14.9554
1 24.412 16.2631 14.9065
1 23.7155 16.9027 14.7298
1 22.8708 16.5174 14.9792
1 23.43 15.8445 14.585
1 23.7783 15.4127 15.366
1 24.4029 14.6858 15.3269
1 24.2141 13.743 15.3397
1 25.1445 13.5402 15.2164
1 24.8447 14.0811 14.4814
1 25.4475 14.6079 15.0113
1 19.1524 7.47514 19.1925
1 19.9364 8.0178 19.3114
1 20.2052 7.10126 19.2066
1 20.7502 7.50826 19.8847
1 20.1901 6.85454 20.3092
1 21.1072 6.65719 20.5207
1 20.9464 6.40511 19.609
1 21.2782 6.42061 18.7075
1 21.9732 6.1404 19.3081
1 21.7525 5.40365 18.7324
1 22.3997 5.10363 19.375
1 22.8655 5.72673 18.8121
1 22.3549 6.00576 18.0483
1 22.1373 5.61601 17.1968
1 21.3359 5.17466 16.907
1 20.7776 5.9076 16.6283
1 20.3387 5.06531 16.4982
1 20.257 5.60638 15.708
1 20.1394 4.67561 15.5246
1 19.6129 3.91351 15.2805
1 20.5454 3.6808 15.3058
1 21.1148 4.41705 15.0697
1 21.0772 4.38075 16.0294
1 21.2838 5.29072 15.8124
1 20.9822 5.47768 14.9217
1 21.074 6.15703 14.2514
1 21.4945 5.79078 13.471
1 20.8342 6.44097 13.2156
1 20.5364 5.56807 12.9408
1 20.1179 5.83716 13.7595
1 20.7529 5.13333 13.9261
1 19.9194 4.7599 13.6336
1 20.2057 4.33066 14.4452
1 19.9382 5.22826 14.6487
1 20.1261 6.15994 14.773
1 19.2341 6.01626 14.4387
1 19.2927 6.60447 15.198
1 19.3163 7.05966 14.3526
1 19.7999 7.73916 14.8213
1 19.9314 7.84393 13.8752
1 20.3926 7.03916 14.1289
1 19.7923 6.84214 13.4057
1 19.153 7.54023 13.2318
1 18.4353 7.13057 13.7137
1 17.8579 7.66847 14.2555
1 16.9429 7.54101 14.5045
1 17.196 8.42353 14.7795
1 17.587 9.08654 14.2099
1 17.8101 9.39644 15.0893
1 18.1447 9.30226 15.9857
1 17.5864 8.54651 15.7988
1 18.4727 8.22548 15.9842
1 18.3862 7.28837 16.1839
1 18.7435 6.39983 16.1101
1 19.6989 6.37471 16.204
1 19.3497 5.49751 16.3782
1 19.2256 5.52976 15.429
1 18.3977 5.94145 15.1729
1 18.306 6.79565 14.7465
1 18.7663 7.51077 15.1921
1 17.8245 7.6469 15.2954
1 18.2685 8.41588 14.9086
1 18.8656 8.03011 14.2611
1 18.3098 8.26041 13.5097
1 19.1953 8.61818 13.4638
1 18.6946 9.1084 14.1295
1 18.2872 9.97704 14.0081
1 18.5362 10.6204 13.3237
1 18.6625 10.8781 12.4008
1 18.1978 11.1328 11.5958
1 17.9087 10.667 10.7994
1 17.9361 9.71446 10.676
1 17.6242 9.23903 11.4556
1 17.3222 9.22611 12.3756
1 17.8583 9.21326 13.186
1 18.7598 9.55762 13.1765
1 19.4719 10.2056 13.098
1 19.0862 9.95911 12.2632
1 19.5546 9.19391 12.5676
1 20.1323 9.91362 12.2724
1 19.7481 10.7853 12.1448
1 20.2382 10.9665 12.9477
1 19.361 11.3458 13.0553
1 18.6992 11.9074 12.6372
1 19.1476 11.6569 11.8241
1 19.958 11.8629 12.2947
1 20.7111 11.3444 11.9971
1 21.6121 11.4909 11.6885
1 22.009 12.3355 11.915
1 22.8651 12.0432 11.5902
1 22.2648 12.1911 10.855
1 23.0404 12.7473 10.7414
1 23.6875 12.7892 11.4483
1 24.6076 12.5152 11.4316
1 24.7974 11.7375 11.9618
1 23.9417 12.0745 12.243
1 23.8729 11.6745 11.3744
1 23.9878 12.1828 10.5682
1 23.1783 11.6663 10.5346
1 23.9321 11.0768 10.4465
1 4.80385 36.4802 2.91323
1 3.97232 36.456 3.39114
1 4.67724 36.647 4.01491
1 4.02906 36.0893 4.45167
1 3.62603 36.9505 4.31862
1 3.60736 37.4916 3.52568
1 4.54321 37.4915 3.31762
1 4.4314 37.6993 4.24908
1 5.29686 37.9927 3.9555
1 4.6466 38.652 3.697
1 4.77845 39.5948 3.85283
1 5.11871 40.3806 4.29422
1 4.56582 40.7277 3.58965
1 5.1912 41.3844 3.27288
1 5.74071 40.7086 2.86397
1 5.97534 40.8855 1.9476
1 5.80645 41.7151 2.39385
1 6.30756 41.5912 3.20253
1 6.84449 41.0567 2.61623
1 7.74575 40.9107 2.91451
1 7.79399 41.6094 2.25876
1 7.42203 41.9595 3.07068
1 6.68619 42.5608 2.95185
1 6.81257 42.0447 2.15441
1 6.3991 42.8337 1.81194
1 6.55633 43.4968 2.48784
1 6.51961 43.9381 1.63636
1 7.2655 43.3808 1.40753
1 7.49422 43.8932 2.18724
1 7.58947 42.9426 2.33126
1 8.34999 43.35 1.89636
1 8.24368 43.5355 0.96139
1 9.18617 43.3956 1.05907
1 9.18426 42.6635 1.67997
1 8.28898 42.3249 1.62599
1 7.72677 42.5411 0.88417
1 8.64128 42.572 0.593697
1 8.15446 42.0154 49.9795
1 8.97481 41.5884 0.230389
1 9.40741 41.8395 49.4125
1 8.90449 42.649 49.5245
1 8.80158 42.7682 48.5812
1 7.99436 42.9042 48.0818
1 8.53309 43.7009 48.1061
1 8.1812 43.6217 48.9974
1 7.47337 43.8038 48.3768
1 7.16864 43.2122 49.0655
1 7.89101 42.5854 49.0913
1 7.50586 41.978 48.4578
1 7.24509 41.7831 49.3636
1 7.1972 42.5547 49.9372
1 7.93893 43.1667 49.9785
1 8.77199 43.6452 49.9535
1 9.24011 43.6411 49.1121
1 9.37329 44.5338 49.4381
1 8.46323 44.6875 49.6938
1 8.51166 44.6166 48.7382
1 8.05508 45.423 49.0065
1 7.57036 44.9397 48.3322
1 7.49213 44.5028 49.1878
1 6.99836 45.3264 49.2234
1 6.71876 45.6422 48.3623
1 7.13193 46.3199 47.8255
1 7.12923 47.2606 48.0188
1 6.76775 47.7429 48.7631
1 7.05811 47.2533 49.5361
1 6.95831 46.3148 49.7062
1 7.43249 46.3381 48.8729
1 6.54046 46.6619 48.7338
1 6.13741 46.8466 47.8822
1 6.64378 46.9697 47.0741
1 7.24899 47.7141 47.0244
1 7.7854 46.9335 47.1833
1 8.10377 46.7795 48.0755
1 7.84864 47.3446 48.8079
1 8.19085 47.6412 49.652
1 8.83943 46.9716 49.8681
1 9.74508 47.2851 49.8348
1 9.2381 47.9595 49.3779
1 8.92167 47.2607 48.8039
1 8.51816 46.4116 48.996
1 9.09414 46.3485 48.2291
1 8.59803 45.538 48.096
1 9.14004 45.4849 48.892
1 8.98034 45.8011 49.7845
1 9.51173 46.3181 0.400815
1 9.35404 47.1522 0.856847
1 8.99118 47.9359 0.437542
1 9.22653 48.8499 0.626267
1 9.72291 48.2854 1.22155
1 10.3302 48.4566 1.94588
1 10.6332 49.3024 2.28281
1 9.79663 49.2235 2.74451
1 9.56491 49.244 1.8124
1 10.3015 49.2854 1.19891
1 11.2453 49.3416 1.37475
1 11.4927 0.172708 0.962317
1 12.2834 49.8828 1.42473
1 13.2201 49.906 1.64034
1 13.9287 0.433094 1.26156
1 43.4705 42.793 47.6268
1 42.7047 42.2613 47.8616
1 42.6411 42.473 46.9264
1 43.5414 42.2487 46.6705
1 43.5197 42.2421 45.7113
1 42.8932 41.6393 45.3072
1 43.4977 41.0576 44.8489
1 44.2555 40.5571 45.151
1 44.6135 40.5473 46.0403
1 43.9001 39.9055 45.9784
1 43.3065 39.1995 45.7162
1 42.5186 39.6583 45.3977
1 42.7104 38.8875 44.8595
1 43.5995 38.8132 44.5086
1 43.9191 38.3943 45.3112
1 43.2234 38.1183 45.9162
1 42.7441 38.1039 46.7485
1 41.7866 38.1615 46.6267
1 41.3412 38.9711 46.3536
1 41.8739 39.7664 46.2512
1 42.8005 39.7628 46.4961
1 42.2808 39.083 46.9374
1 42.3709 38.8049 46.0203
1 41.7115 38.8682 45.3285
1 41.3193 39.7441 45.365
1 41.052 40.4909 44.8268
1 40.3974 40.3694 45.5207
1 39.442 40.4051 45.6305
1 39.8426 40.354 46.5027
1 39.9986 41.2076 46.0952
1 39.101 41.201 46.4325
1 38.1488 41.2285 46.5602
1 38.3734 41.7878 45.813
1 37.6283 42.3837 45.9265
1 37.1963 43.1838 45.6131
1 37.9839 42.9978 45.0979
1 38.2084 43.3273 44.2254
1 38.8525 44.0185 44.0548
1 39.2929 43.1654 44.048
1 39.0518 43.1139 44.9753
1 39.6056 43.8864 44.8522
1 39.0826 44.6856 44.9399
1 38.4022 44.021 45.0596
1 39.0093 43.8718 45.7875
1 38.1228 43.5981 46.0369
1 38.6773 42.8195 45.9689
1 39.4107 42.1985 46.0092
1 39.5235 42.8601 46.6958
1 40.4654 43.05 46.6431
1 41.1212 42.3956 46.9112
1 40.2542 42.0062 46.7572
1 40.8459 41.8463 46.0128
1 41.0527 41.2734 46.755
1 41.6403 40.6985 47.2484
1 42.0393 41.5706 47.1851
1 41.9167 41.8326 46.2703
1 42.8124 41.5043 46.3797
1 42.1938 40.7763 46.338
1 41.371 40.7827 45.8484
1 40.9354 40.2094 46.4833
1 41.3046 39.6654 47.1861
1 41.3945 38.7573 47.4861
1 41.4629 37.8138 47.632
1 42.1684 37.3338 47.1999
1 41.9465 36.6368 47.8193
1 42.1996 37.4188 48.3177
1 41.5702 38.0495 48.6797
1 41.5727 37.5916 49.5219
1 41.0005 36.8215 49.5424
1 40.4976 37.6085 49.7736
1 40.0806 36.8347 0.150769
1 40.0815 35.9661 49.7533
1 40.5028 36.0228 48.8955
1 40.0536 36.8578 49.0333
1 39.6527 37.1522 48.2166
1 39.2934 38.0391 48.1701
1 39.3998 37.7935 49.0932
1 40.2843 37.9114 48.738
1 40.8724 37.2388 48.3865
1 40.481 36.4985 47.9219
1 39.6601 36.0749 48.1881
1 39.239 36.124 49.0482
1 39.1285 36.8899 49.6134
1 39.0952 36.9483 0.567233
1 38.2211 37.2938 0.387083
1 38.3468 37.2099 1.33694
1 38.9004 36.4427 1.50866
1 38.2707 36.2415 0.811634
1 38.2331 36.3258 49.8555
1 39.0546 35.9103 0.123774
1 39.6902 36.0498 0.826956
1 39.9571 36.8701 1.25029
1 40.7147 37.3433 0.8924
1 41.235 38.0733 0.548923
1 41.6673 38.7303 1.10464
1 42.0621 38.6487 1.97713
1 41.2418 39.1308 2.09922
1 41.1525 38.252 2.47487
1 40.7725 38.2468 1.59045
1 41.5723 37.7186 1.57172
1 29.9939 31.3837 22.3915
1 29.3227 30.7007 22.3984
1 30.1705 30.3117 22.6339
1 29.7198 30.6183 23.4211
1 29.8062 31.0678 24.2635
1 29.1567 31.7643 24.1467
1 29.7537 31.7452 23.3946
1 28.9123 31.3579 23.1457
1 28.7485 30.7623 23.8806
1 29.2516 30.1227 24.3912
1 28.5054 29.6773 23.9853
1 29.067 28.8994 23.9276
1 28.2899 28.8204 23.3711
1 27.6036 28.1721 23.5532
1 28.308 27.8159 23.0023
1 27.7768 28.4482 22.5157
1 28.261 28.0789 21.7809
1 27.4224 28.4528 21.4823
1 27.7374 27.7981 20.8581
1 27.382 27.4119 21.6643
1 27.9999 27.0579 22.3011
1 27.2718 27.4649 22.778
1 26.8444 26.7442 22.3083
1 26.2225 27.476 22.3245
1 26.7693 28.257 22.2653
1 25.9724 28.7035 22.5349
1 26.3651 28.1833 23.2448
1 26.9635 28.9272 23.1297
1 27.4558 29.2521 23.8875
1 28.0591 28.7371 24.4307
1 28.5057 27.9524 24.1048
1 29.2859 27.8165 23.5658
1 29.1771 28.4858 22.8907
1 29.0626 28.801 21.9969
1 29.7159 29.9274 21.7439
1 28.9549 29.7155 22.2082
1 29.8565 29.0206 21.5269
1 30.0577 28.3892 22.2217
1 29.7564 29.2782 22.4253
1 29.0402 29.441 21.3096
1 28.7457 29.5421 20.3988
1 28.0853 29.9223 20.98
1 28.0965 30.2919 21.8669
1 28.8988 30.53 21.3982
1 29.0265 30.5765 20.4506
1 29.7302 29.9525 20.6517
1 29.6746 29.0082 20.4722
1 29.1163 28.4027 20.9707
1 28.2418 28.7909 20.9356
1 28.1012 29.2012 21.7923
1 27.8628 29.53 22.6622
1 27.0906 29.3099 22.1313
1 26.4674 28.9924 21.4742
1 26.0552 28.8746 20.613
1 26.9165 28.4647 20.5281
1 26.9778 27.6854 19.973
1 26.9357 27.0913 20.723
1 26.6309 26.1951 20.8713
1 26.1627 26.8234 21.4258
1 25.6807 26.6899 20.6041
1 26.3225 26.7724 19.8975
1 25.8291 27.5379 19.5945
1 26.0238 27.7274 20.5104
1 26.4876 27.8711 21.3288
1 25.6482 28.3126 21.4248
1 25.3 27.4367 21.2742
1 24.4672 27.0651 20.9743
1 24.9259 27.3973 20.2042
1 25.1134 28.3069 20.4285
1 24.4785 28.2898 19.7072
1 23.9701 28.0904 20.4965
1 23.4167 28.8131 20.8078
1 24.0445 29.1234 21.4683
1 23.8563 29.814 20.8329
1 24.3765 29.1342 20.3998
1 25.0651 29.1857 21.0678
1 25.0505 28.9957 22.0085
1 24.3005 28.5265 22.3734
1 24.3254 27.8048 23.0027
1 25.1142 28.3332 23.1539
1 25.2274 27.907 22.3048
1 24.4515 27.4606 21.9725
1 24.5714 28.2 21.3718
1 23.6476 28.0785 21.5985
1 23.1101 28.8135 21.9034
1 23.2983 28.3116 22.6992
1 22.7334 27.7879 22.1262
1 23.4891 27.2852 22.4434
1 22.8051 27.3149 23.1175
1 23.4585 27.7753 23.6421
1 23.2437 28.705 23.7267
1 23.1979 28.2912 24.5903
1 24.1278 28.2884 24.354
1 23.9846 27.968 25.2515
1 23.1247 28.0846 25.6719
1 22.3749 27.8093 25.1372
1 22.5585 27.4941 24.2463
1 23.1714 26.7861 24.0339
1 23.9454 27.2043 24.4202
1 23.245 27.1634 25.0727
1 14.6898 44.4488 30.5211
1 14.4191 43.5283 30.5868
1 13.8847 43.0879 29.9203
1 14.063 44.0041 29.6924
1 13.3483 44.6288 29.8406
1 13.3806 45.5191 29.478
1 14.1008 45.8351 28.928
1 14.3923 46.1056 29.7974
1 14.9251 45.6515 30.4532
1 14.3821 46.3342 30.859
1 15.0706 46.7736 30.3531
1 14.7888 47.059 29.4787
1 14.048 47.1178 30.0872
1 13.5081 46.6398 29.4527
1 13.423 46.2275 30.3168
1 13.8621 45.3881 30.4772
1 14.3395 45.0535 29.7152
1 13.9458 44.7453 28.8945
1 14.89 44.8959 28.8365
1 14.5485 45.34 28.0613
1 14.581 44.8462 27.2397
1 14.255 44.2863 27.9478
1 15.2145 44.2944 27.999
1 15.8857 44.5236 28.6483
1 15.4775 44.1725 29.4463
1 15.5759 43.4894 28.7743
1 14.666 43.7942 28.8213
1 14.9008 43.2489 29.5742
1 15.5014 42.5123 29.4224
1 16.0409 43.2176 29.7846
1 16.5159 42.3942 29.9354
1 16.3479 42.7448 30.8138
1 16.2911 42.2706 31.6471
1 16.6428 41.3936 31.8189
1 16.4278 40.6665 31.2286
1 17.3235 40.9723 31.0673
1 16.8979 40.8207 30.2211
1 17.332 41.6781 30.1948
1 17.2103 42.0736 31.062
1 16.4128 41.6308 30.771
1 15.629 42.0386 30.4176
1 15.2978 42.9269 30.5239
1 14.6704 42.3409 30.0948
1 14.4342 42.2407 29.1744
1 14.5349 41.409 28.7026
1 13.9669 41.2363 29.4548
1 13.2317 41.8358 29.5971
1 13.5112 41.8942 28.6828
1 12.9222 41.5808 27.9945
1 12.1301 41.0503 28.1008
1 12.3394 40.2028 28.5022
1 12.3725 40.1435 29.4574
1 12.9152 39.7268 30.1304
1 13.7632 40.1361 30.3327
1 13.8414 41.0874 30.4997
1 14.0183 41.5028 31.3443
1 14.7931 41.4982 30.7762
1 15.5688 40.9614 30.577
1 15.9999 41.2704 29.7755
1 15.0533 41.4119 29.6909
1 14.7062 40.6 30.0701
1 14.5148 40.4998 31.0099
1 13.6176 40.4546 31.3584
1 12.8237 40.5771 30.8237
1 13.0617 40.7843 29.9183
1 13.4856 40.2398 29.2539
1 13.6107 40.7971 28.481
1 12.8202 41.0651 28.9478
1 12.3473 41.8963 28.9296
1 11.5289 42.0214 29.4174
1 12.234 42.2679 30.0269
1 12.1974 41.3268 29.8788
1 11.7501 40.9657 29.113
1 11.3146 40.113 29.1712
1 10.6727 39.9687 29.8718
1 10.9189 39.9419 30.8008
1 11.8613 39.9692 31.0007
1 11.7217 39.6014 30.1239
1 11.5615 40.5475 30.1488
1 10.8694 41.0533 29.716
1 11.2646 41.5964 30.4005
1 11.9852 41.5661 31.0312
1 12.1302 41.9393 31.9051
1 12.9143 41.8309 32.4524
1 12.9739 41.2797 31.6666
1 13.0926 42.1896 31.3871
1 12.944 41.6346 30.6198
1 13.723 42.1699 30.4948
1 14.3562 42.5445 31.1066
1 15.2304 42.2884 31.4016
1 15.5807 41.4089 31.546
1 15.4227 40.4637 31.5744
1 15.361 39.9066 30.7919
1 16.1491 39.6123 31.2502
1 15.3871 39.3883 31.7908
1 14.5338 39.8277 31.8378
1 14.424 40.756 32.0652
1 13.6315 41.0004 32.5529
1 13.3045 41.1593 33.4474
1 12.9884 42.0155 33.7565
1 31.1553 41.4745 13.8702
1 31.5551 41.0247 14.6193
1 32.0824 41.1516 15.4121
1 31.909 41.3551 16.3346
1 32.61 41.9317 16.0192
1 32.9732 41.047 16.1084
1 33.8485 41.0628 16.5079
1 34.6014 41.3033 17.0581
1 35.5053 40.9853 16.9929
1 35.4804 41.3512 17.8793
1 35.263 41.5242 18.7981
1 35.7442 41.5687 19.6296
1 36.4019 40.9411 19.9343
1 36.8344 41.3456 19.1808
1 36.1044 40.7954 18.881
1 36.4228 39.8919 18.7408
1 37.3152 39.6567 18.4361
1 38.0236 40.3037 18.3021
1 37.863 41.255 18.3839
1 38.2178 40.8862 19.1987
1 37.837 41.7565 19.3463
1 38.6862 41.834 18.9011
1 38.916 41.0521 18.3968
1 38.5366 41.0162 17.5204
1 39.435 41.3712 17.5039
1 40.3518 41.092 17.425
1 40.3567 40.2492 16.9682
1 39.7582 40.8682 16.5382
1 39.2974 40.3231 17.1774
1 39.7229 40.455 18.0274
1 40.5501 39.9766 18.0135
1 39.8416 39.4592 17.6137
1 38.9754 39.6829 17.9728
1 38.9963 40.0898 18.8425
1 38.5403 39.2456 18.8628
1 39.2461 38.7374 18.4503
1 39.8508 39.4396 18.6953
1 40.1193 40.2976 19.0271
1 39.8976 41.2051 18.8079
1 40.7594 41.0135 18.4283
1 40.4685 41.8887 18.157
1 41.3558 42.0772 17.8362
1 42.0049 41.5132 18.2624
1 42.3432 42.4137 18.2905
1 42.291 43.3748 18.3473
1 42.3548 44.1186 17.7344
1 42.6973 44.3386 16.8571
1 43.2115 45.1403 16.7063
1 44.0985 45.2477 17.0664
1 44.5285 44.5416 17.5605
1 44.1653 44.4611 18.4446
1 44.9193 43.8697 18.3725
1 44.1974 43.4801 17.8755
1 43.996 43.4198 18.8114
1 43.2581 43.838 18.3664
1 43.2031 43.5763 17.4449
1 42.4335 43.0074 17.3726
1 41.8847 43.6136 16.878
1 41.3465 42.978 16.4013
1 41.1703 43.0706 15.4612
1 40.2748 42.9987 15.1176
1 39.6054 43.6845 15.1805
1 39.4524 43.8285 14.2445
1 38.6129 43.6957 14.6893
1 38.9046 42.8429 15.0199